  12  12   0   0
  0.1356428E+02  0.5460000E-09  0.5460000E-09  0.5460000E-09  0.5000000E-15
  1.000000000000000E-004
  CAR 
 unknown system                          
     13.18219460    -29.23109436  301      4.80295970      1.00000000
    -29.231  0.0000E+00  0.0000E+00  0.0000E+00  0.0000E+00
    -29.090  0.0000E+00  0.0000E+00  0.0000E+00  0.0000E+00
    -28.948 -0.1361E-30 -0.1645E-30 -0.1924E-31 -0.2326E-31
    -28.807 -0.1440E-25 -0.1713E-25 -0.2035E-26 -0.2422E-26
    -28.666 -0.5561E-21 -0.6514E-21 -0.7862E-22 -0.9209E-22
    -28.524 -0.7831E-17 -0.9028E-17 -0.1107E-17 -0.1276E-17
    -28.383 -0.3893E-13 -0.4433E-13 -0.5505E-14 -0.6268E-14
    -28.241 -0.7161E-10 -0.7994E-10 -0.1013E-10 -0.1131E-10
    -28.100 -0.4730E-07 -0.5196E-07 -0.6697E-08 -0.7357E-08
    -27.959 -0.1108E-04 -0.1197E-04 -0.1573E-05 -0.1700E-05
    -27.817 -0.8985E-03 -0.9545E-03 -0.1286E-03 -0.1366E-03
    -27.676 -0.2378E-01 -0.2480E-01 -0.3491E-02 -0.3643E-02
    -27.535 -0.1681E+00 -0.1709E+00 -0.2726E-01 -0.2781E-01
    -27.393  0.9447E-01  0.1130E+00 -0.1390E-01 -0.1183E-01
    -27.252  0.2257E+01  0.2302E+01  0.3053E+00  0.3136E+00
    -27.110  0.5459E+01  0.5515E+01  0.1077E+01  0.1093E+01
    -26.969  0.1109E+02  0.1114E+02  0.2645E+01  0.2669E+01
    -26.828  0.9137E+01  0.9025E+01  0.3936E+01  0.3945E+01
    -26.686  0.1079E+01  0.1011E+01  0.4089E+01  0.4088E+01
    -26.545 -0.5328E+00 -0.5274E+00  0.4014E+01  0.4013E+01
    -26.404 -0.9242E-01 -0.8928E-01  0.4001E+01  0.4001E+01
    -26.262 -0.3950E-02 -0.3754E-02  0.4000E+01  0.4000E+01
    -26.121 -0.5436E-04 -0.5091E-04  0.4000E+01  0.4000E+01
    -25.979 -0.2579E-06 -0.2381E-06  0.4000E+01  0.4000E+01
    -25.838 -0.4332E-09 -0.3944E-09  0.4000E+01  0.4000E+01
    -25.697 -0.2591E-12 -0.2356E-12  0.4000E+01  0.4000E+01
    -25.555  0.0000E+00  0.0000E+00  0.4000E+01  0.4000E+01
    -25.414  0.0000E+00  0.0000E+00  0.4000E+01  0.4000E+01
    -25.273  0.0000E+00  0.0000E+00  0.4000E+01  0.4000E+01
    -25.131  0.0000E+00  0.0000E+00  0.4000E+01  0.4000E+01
    -24.990  0.0000E+00  0.0000E+00  0.4000E+01  0.4000E+01
    -24.848  0.0000E+00  0.0000E+00  0.4000E+01  0.4000E+01
    -24.707  0.0000E+00  0.0000E+00  0.4000E+01  0.4000E+01
    -24.566  0.0000E+00  0.0000E+00  0.4000E+01  0.4000E+01
    -24.424  0.0000E+00  0.0000E+00  0.4000E+01  0.4000E+01
    -24.283  0.0000E+00  0.0000E+00  0.4000E+01  0.4000E+01
    -24.141  0.0000E+00  0.0000E+00  0.4000E+01  0.4000E+01
    -24.000  0.0000E+00  0.0000E+00  0.4000E+01  0.4000E+01
    -23.859  0.0000E+00  0.0000E+00  0.4000E+01  0.4000E+01
    -23.717  0.0000E+00  0.0000E+00  0.4000E+01  0.4000E+01
    -23.576  0.0000E+00  0.0000E+00  0.4000E+01  0.4000E+01
    -23.435  0.0000E+00  0.0000E+00  0.4000E+01  0.4000E+01
    -23.293  0.0000E+00  0.0000E+00  0.4000E+01  0.4000E+01
    -23.152  0.0000E+00  0.0000E+00  0.4000E+01  0.4000E+01
    -23.010  0.0000E+00  0.0000E+00  0.4000E+01  0.4000E+01
    -22.869  0.0000E+00  0.0000E+00  0.4000E+01  0.4000E+01
    -22.728  0.0000E+00  0.0000E+00  0.4000E+01  0.4000E+01
    -22.586  0.0000E+00  0.0000E+00  0.4000E+01  0.4000E+01
    -22.445  0.0000E+00  0.0000E+00  0.4000E+01  0.4000E+01
    -22.304  0.0000E+00  0.0000E+00  0.4000E+01  0.4000E+01
    -22.162  0.0000E+00  0.0000E+00  0.4000E+01  0.4000E+01
    -22.021  0.0000E+00  0.0000E+00  0.4000E+01  0.4000E+01
    -21.879  0.0000E+00  0.0000E+00  0.4000E+01  0.4000E+01
    -21.738  0.0000E+00  0.0000E+00  0.4000E+01  0.4000E+01
    -21.597  0.0000E+00  0.0000E+00  0.4000E+01  0.4000E+01
    -21.455  0.0000E+00  0.0000E+00  0.4000E+01  0.4000E+01
    -21.314  0.0000E+00  0.0000E+00  0.4000E+01  0.4000E+01
    -21.173  0.0000E+00  0.0000E+00  0.4000E+01  0.4000E+01
    -21.031  0.0000E+00  0.0000E+00  0.4000E+01  0.4000E+01
    -20.890  0.0000E+00  0.0000E+00  0.4000E+01  0.4000E+01
    -20.748  0.0000E+00  0.0000E+00  0.4000E+01  0.4000E+01
    -20.607  0.0000E+00  0.0000E+00  0.4000E+01  0.4000E+01
    -20.466  0.0000E+00  0.0000E+00  0.4000E+01  0.4000E+01
    -20.324  0.0000E+00  0.0000E+00  0.4000E+01  0.4000E+01
    -20.183  0.0000E+00  0.0000E+00  0.4000E+01  0.4000E+01
    -20.042  0.0000E+00  0.0000E+00  0.4000E+01  0.4000E+01
    -19.900  0.0000E+00  0.0000E+00  0.4000E+01  0.4000E+01
    -19.759  0.0000E+00  0.0000E+00  0.4000E+01  0.4000E+01
    -19.617  0.0000E+00  0.0000E+00  0.4000E+01  0.4000E+01
    -19.476  0.0000E+00  0.0000E+00  0.4000E+01  0.4000E+01
    -19.335  0.0000E+00  0.0000E+00  0.4000E+01  0.4000E+01
    -19.193  0.0000E+00  0.0000E+00  0.4000E+01  0.4000E+01
    -19.052  0.0000E+00  0.0000E+00  0.4000E+01  0.4000E+01
    -18.911  0.0000E+00  0.0000E+00  0.4000E+01  0.4000E+01
    -18.769  0.0000E+00  0.0000E+00  0.4000E+01  0.4000E+01
    -18.628  0.0000E+00  0.0000E+00  0.4000E+01  0.4000E+01
    -18.486  0.0000E+00  0.0000E+00  0.4000E+01  0.4000E+01
    -18.345  0.0000E+00  0.0000E+00  0.4000E+01  0.4000E+01
    -18.204  0.0000E+00  0.0000E+00  0.4000E+01  0.4000E+01
    -18.062  0.0000E+00  0.0000E+00  0.4000E+01  0.4000E+01
    -17.921  0.0000E+00  0.0000E+00  0.4000E+01  0.4000E+01
    -17.780  0.0000E+00  0.0000E+00  0.4000E+01  0.4000E+01
    -17.638  0.0000E+00  0.0000E+00  0.4000E+01  0.4000E+01
    -17.497  0.0000E+00  0.0000E+00  0.4000E+01  0.4000E+01
    -17.355  0.0000E+00  0.0000E+00  0.4000E+01  0.4000E+01
    -17.214  0.0000E+00  0.0000E+00  0.4000E+01  0.4000E+01
    -17.073  0.0000E+00  0.0000E+00  0.4000E+01  0.4000E+01
    -16.931  0.0000E+00  0.0000E+00  0.4000E+01  0.4000E+01
    -16.790  0.0000E+00  0.0000E+00  0.4000E+01  0.4000E+01
    -16.648  0.0000E+00  0.0000E+00  0.4000E+01  0.4000E+01
    -16.507  0.0000E+00  0.0000E+00  0.4000E+01  0.4000E+01
    -16.366  0.0000E+00  0.0000E+00  0.4000E+01  0.4000E+01
    -16.224  0.0000E+00  0.0000E+00  0.4000E+01  0.4000E+01
    -16.083  0.0000E+00  0.0000E+00  0.4000E+01  0.4000E+01
    -15.942  0.0000E+00  0.0000E+00  0.4000E+01  0.4000E+01
    -15.800  0.0000E+00  0.0000E+00  0.4000E+01  0.4000E+01
    -15.659  0.0000E+00  0.0000E+00  0.4000E+01  0.4000E+01
    -15.517  0.0000E+00  0.0000E+00  0.4000E+01  0.4000E+01
    -15.376  0.0000E+00  0.0000E+00  0.4000E+01  0.4000E+01
    -15.235  0.0000E+00  0.0000E+00  0.4000E+01  0.4000E+01
    -15.093 -0.2969E-28 -0.1079E-27  0.4000E+01  0.4000E+01
    -14.952 -0.2185E-23 -0.7102E-23  0.4000E+01  0.4000E+01
    -14.811 -0.5867E-19 -0.1706E-18  0.4000E+01  0.4000E+01
    -14.669 -0.5739E-15 -0.1492E-14  0.4000E+01  0.4000E+01
    -14.528 -0.1974E-11 -0.4581E-11  0.4000E+01  0.4000E+01
    -14.386 -0.2512E-08 -0.5207E-08  0.4000E+01  0.4000E+01
    -14.245 -0.1144E-05 -0.2114E-05  0.4000E+01  0.4000E+01
    -14.104 -0.1835E-03 -0.3017E-03  0.4000E+01  0.4000E+01
    -13.962 -0.1003E-01 -0.1458E-01  0.3999E+01  0.3998E+01
    -13.821 -0.1704E+00 -0.2148E+00  0.3974E+01  0.3968E+01
    -13.680 -0.5645E+00 -0.5198E+00  0.3895E+01  0.3894E+01
    -13.538  0.2771E+01  0.3642E+01  0.4286E+01  0.4409E+01
    -13.397  0.1107E+02  0.1154E+02  0.5852E+01  0.6040E+01
    -13.255  0.8144E+01  0.7119E+01  0.7003E+01  0.7047E+01
    -13.114  0.5109E+00  0.1283E+00  0.7076E+01  0.7065E+01
    -12.973 -0.4678E+00 -0.4091E+00  0.7009E+01  0.7007E+01
    -12.831 -0.6450E-01 -0.4739E-01  0.7000E+01  0.7000E+01
    -12.690 -0.2344E-02 -0.1513E-02  0.7000E+01  0.7000E+01
    -12.549 -0.2781E-04 -0.1594E-04  0.7000E+01  0.7000E+01
    -12.407 -0.1143E-06 -0.5837E-07  0.7000E+01  0.7000E+01
    -12.266 -0.1668E-09 -0.7599E-10  0.7000E+01  0.7000E+01
    -12.124 -0.4194E-11 -0.1563E-10  0.7000E+01  0.7000E+01
    -11.983 -0.4075E-08 -0.1284E-07  0.7000E+01  0.7000E+01
    -11.842 -0.1443E-05 -0.3761E-05  0.7000E+01  0.7000E+01
    -11.700 -0.1790E-03 -0.3842E-03  0.7000E+01  0.7000E+01
    -11.559 -0.7487E-02 -0.1308E-01  0.6999E+01  0.6998E+01
    -11.418 -0.9477E-01 -0.1296E+00  0.6986E+01  0.6980E+01
    -11.276 -0.2029E+00 -0.1349E+00  0.6957E+01  0.6961E+01
    -11.135  0.1110E+01  0.1602E+01  0.7114E+01  0.7187E+01
    -10.993  0.4602E+01  0.5553E+01  0.7764E+01  0.7972E+01
    -10.852  0.1043E+02  0.1144E+02  0.9239E+01  0.9590E+01
    -10.711  0.1081E+02  0.9413E+01  0.1077E+02  0.1092E+02
    -10.569  0.2367E+01  0.1172E+01  0.1110E+02  0.1109E+02
    -10.428 -0.9235E+00 -0.9310E+00  0.1097E+02  0.1095E+02
    -10.286 -0.1192E+01 -0.8732E+00  0.1080E+02  0.1083E+02
    -10.145  0.5096E+01  0.5868E+01  0.1152E+02  0.1166E+02
    -10.004  0.2313E+02  0.2300E+02  0.1479E+02  0.1491E+02
     -9.862  0.2098E+02  0.2027E+02  0.1776E+02  0.1778E+02
     -9.721  0.2427E+01  0.2250E+01  0.1810E+02  0.1810E+02
     -9.580  0.6420E+00  0.7342E+00  0.1819E+02  0.1820E+02
     -9.438  0.1001E+02  0.1009E+02  0.1961E+02  0.1963E+02
     -9.297  0.9325E+01  0.9249E+01  0.2093E+02  0.2093E+02
     -9.155  0.1137E+01  0.1088E+01  0.2109E+02  0.2109E+02
     -9.014 -0.5303E+00 -0.5267E+00  0.2101E+02  0.2101E+02
     -8.873 -0.9265E-01 -0.9044E-01  0.2100E+02  0.2100E+02
     -8.731 -0.3967E-02 -0.3829E-02  0.2100E+02  0.2100E+02
     -8.590 -0.5467E-04 -0.5223E-04  0.2100E+02  0.2100E+02
     -8.449 -0.2597E-06 -0.2456E-06  0.2100E+02  0.2100E+02
     -8.307 -0.4368E-09 -0.4091E-09  0.2100E+02  0.2100E+02
     -8.166 -0.2639E-12 -0.2450E-12  0.2100E+02  0.2100E+02
     -8.024 -0.2626E-26 -0.7625E-26  0.2100E+02  0.2100E+02
     -7.883 -0.1305E-21 -0.3446E-21  0.2100E+02  0.2100E+02
     -7.742 -0.2366E-17 -0.5678E-17  0.2100E+02  0.2100E+02
     -7.600 -0.1561E-13 -0.3287E-13  0.2100E+02  0.2100E+02
     -7.459 -0.3604E-10 -0.7132E-10  0.2100E+02  0.2100E+02
     -7.318 -0.3079E-07 -0.5528E-07  0.2100E+02  0.2100E+02
     -7.176 -0.9363E-05 -0.1523E-04  0.2100E+02  0.2100E+02
     -7.035 -0.9932E-03 -0.1460E-02  0.2100E+02  0.2100E+02
     -6.893 -0.3504E-01 -0.4620E-01  0.2099E+02  0.2099E+02
     -6.752 -0.3526E+00 -0.4043E+00  0.2095E+02  0.2094E+02
     -6.611 -0.1411E+00  0.1020E+00  0.2093E+02  0.2095E+02
     -6.469  0.6143E+01  0.7036E+01  0.2179E+02  0.2195E+02
     -6.328  0.1179E+02  0.1157E+02  0.2346E+02  0.2358E+02
     -6.187  0.4530E+01  0.3715E+01  0.2410E+02  0.2411E+02
     -6.045 -0.4300E+00 -0.5141E+00  0.2404E+02  0.2403E+02
     -5.904 -0.2621E+00 -0.2186E+00  0.2400E+02  0.2400E+02
     -5.762 -0.2041E-01 -0.1501E-01  0.2400E+02  0.2400E+02
     -5.621 -0.4743E-03 -0.3137E-03  0.2400E+02  0.2400E+02
     -5.480 -0.3709E-05 -0.2220E-05  0.2400E+02  0.2400E+02
     -5.338 -0.1017E-07 -0.5516E-08  0.2400E+02  0.2400E+02
     -5.197 -0.9946E-11 -0.4900E-11  0.2400E+02  0.2400E+02
     -5.056 -0.4712E-14  0.0000E+00  0.2400E+02  0.2400E+02
     -4.914  0.0000E+00  0.0000E+00  0.2400E+02  0.2400E+02
     -4.773  0.0000E+00  0.0000E+00  0.2400E+02  0.2400E+02
     -4.631  0.0000E+00  0.0000E+00  0.2400E+02  0.2400E+02
     -4.490  0.0000E+00  0.0000E+00  0.2400E+02  0.2400E+02
     -4.349  0.0000E+00  0.0000E+00  0.2400E+02  0.2400E+02
     -4.207  0.0000E+00  0.0000E+00  0.2400E+02  0.2400E+02
     -4.066  0.0000E+00  0.0000E+00  0.2400E+02  0.2400E+02
     -3.924  0.0000E+00  0.0000E+00  0.2400E+02  0.2400E+02
     -3.783  0.0000E+00  0.0000E+00  0.2400E+02  0.2400E+02
     -3.642  0.0000E+00  0.0000E+00  0.2400E+02  0.2400E+02
     -3.500  0.0000E+00  0.0000E+00  0.2400E+02  0.2400E+02
     -3.359  0.0000E+00  0.0000E+00  0.2400E+02  0.2400E+02
     -3.218  0.0000E+00  0.0000E+00  0.2400E+02  0.2400E+02
     -3.076  0.0000E+00  0.0000E+00  0.2400E+02  0.2400E+02
     -2.935  0.0000E+00  0.0000E+00  0.2400E+02  0.2400E+02
     -2.793  0.0000E+00  0.0000E+00  0.2400E+02  0.2400E+02
     -2.652  0.0000E+00  0.0000E+00  0.2400E+02  0.2400E+02
     -2.511  0.0000E+00  0.0000E+00  0.2400E+02  0.2400E+02
     -2.369  0.0000E+00  0.0000E+00  0.2400E+02  0.2400E+02
     -2.228  0.0000E+00  0.0000E+00  0.2400E+02  0.2400E+02
     -2.087  0.0000E+00  0.0000E+00  0.2400E+02  0.2400E+02
     -1.945  0.0000E+00  0.0000E+00  0.2400E+02  0.2400E+02
     -1.804  0.0000E+00  0.0000E+00  0.2400E+02  0.2400E+02
     -1.662  0.0000E+00  0.0000E+00  0.2400E+02  0.2400E+02
     -1.521  0.0000E+00  0.0000E+00  0.2400E+02  0.2400E+02
     -1.380  0.0000E+00  0.0000E+00  0.2400E+02  0.2400E+02
     -1.238  0.0000E+00  0.0000E+00  0.2400E+02  0.2400E+02
     -1.097  0.0000E+00  0.0000E+00  0.2400E+02  0.2400E+02
     -0.956  0.0000E+00  0.0000E+00  0.2400E+02  0.2400E+02
     -0.814  0.0000E+00  0.0000E+00  0.2400E+02  0.2400E+02
     -0.673  0.0000E+00  0.0000E+00  0.2400E+02  0.2400E+02
     -0.531  0.0000E+00  0.0000E+00  0.2400E+02  0.2400E+02
     -0.390  0.0000E+00 -0.1093E-30  0.2400E+02  0.2400E+02
     -0.249 -0.3441E-26 -0.1290E-25  0.2400E+02  0.2400E+02
     -0.107 -0.1670E-21 -0.5562E-21  0.2400E+02  0.2400E+02
      0.034 -0.2958E-17 -0.8747E-17  0.2400E+02  0.2400E+02
      0.175 -0.1907E-13 -0.4889E-13  0.2400E+02  0.2400E+02
      0.317 -0.4304E-10 -0.1002E-09  0.2400E+02  0.2400E+02
      0.458 -0.3604E-07 -0.7443E-07  0.2400E+02  0.2400E+02
      0.600 -0.1079E-04 -0.1975E-04  0.2400E+02  0.2400E+02
      0.741 -0.1139E-02 -0.1843E-02  0.2400E+02  0.2400E+02
      0.882 -0.4094E-01 -0.5818E-01  0.2399E+02  0.2399E+02
      1.024 -0.4477E+00 -0.5438E+00  0.2393E+02  0.2391E+02
      1.165 -0.5970E+00 -0.3087E+00  0.2385E+02  0.2387E+02
      1.306  0.7272E+01  0.9078E+01  0.2487E+02  0.2515E+02
      1.448  0.2069E+02  0.2139E+02  0.2780E+02  0.2818E+02
      1.589  0.1488E+02  0.1296E+02  0.2990E+02  0.3001E+02
      1.731  0.1673E+01  0.7903E+00  0.3014E+02  0.3012E+02
      1.872 -0.8210E+00 -0.7420E+00  0.3002E+02  0.3002E+02
      2.013 -0.1579E+00 -0.1143E+00  0.3000E+02  0.3000E+02
      2.155 -0.7728E-02 -0.4796E-02  0.3000E+02  0.3000E+02
      2.296 -0.1241E-03 -0.6683E-04  0.3000E+02  0.3000E+02
      2.437 -0.6932E-06 -0.3254E-06  0.3000E+02  0.3000E+02
      2.579 -0.1377E-08 -0.5645E-09  0.3000E+02  0.3000E+02
      2.720 -0.9848E-12 -0.3535E-12  0.3000E+02  0.3000E+02
      2.862 -0.1900E-12 -0.6011E-12  0.3000E+02  0.3000E+02
      3.003 -0.3571E-09 -0.9797E-09  0.3000E+02  0.3000E+02
      3.144 -0.2424E-06 -0.5726E-06  0.3000E+02  0.3000E+02
      3.286 -0.5836E-04 -0.1185E-03  0.3000E+02  0.3000E+02
      3.427 -0.4866E-02 -0.8441E-02  0.3000E+02  0.3000E+02
      3.569 -0.1324E+00 -0.1932E+00  0.2998E+02  0.2997E+02
      3.710 -0.9454E+00 -0.1073E+01  0.2985E+02  0.2982E+02
      3.851  0.1096E+01  0.2443E+01  0.3000E+02  0.3017E+02
      3.993  0.1638E+02  0.1880E+02  0.3232E+02  0.3282E+02
      4.134  0.2124E+02  0.1924E+02  0.3532E+02  0.3554E+02
      4.275  0.5051E+01  0.4171E+01  0.3603E+02  0.3613E+02
      4.417  0.1144E+02  0.1501E+02  0.3765E+02  0.3825E+02
      4.558  0.3000E+02  0.3135E+02  0.4189E+02  0.4269E+02
      4.700  0.3077E+02  0.2871E+02  0.4624E+02  0.4675E+02
      4.841  0.1351E+02  0.1038E+02  0.4815E+02  0.4821E+02
      4.982 -0.1057E+00 -0.7645E+00  0.4814E+02  0.4811E+02
      5.124 -0.8659E+00 -0.6791E+00  0.4801E+02  0.4801E+02
      5.265 -0.9975E-01 -0.6245E-01  0.4800E+02  0.4800E+02
      5.406 -0.3235E-02 -0.1687E-02  0.4800E+02  0.4800E+02
      5.548 -0.3474E-04 -0.1527E-04  0.4800E+02  0.4800E+02
      5.689 -0.1300E-06 -0.4832E-07  0.4800E+02  0.4800E+02
      5.831 -0.1729E-09 -0.5451E-10  0.4800E+02  0.4800E+02
      5.972 -0.8484E-13 -0.2359E-13  0.4800E+02  0.4800E+02
      6.113 -0.1358E-12 -0.1440E-12  0.4800E+02  0.4800E+02
      6.255 -0.2463E-09 -0.2609E-09  0.4800E+02  0.4800E+02
      6.396 -0.1622E-06 -0.1707E-06  0.4800E+02  0.4800E+02
      6.537 -0.3844E-04 -0.4021E-04  0.4800E+02  0.4800E+02
      6.679 -0.3242E-02 -0.3373E-02  0.4800E+02  0.4800E+02
      6.820 -0.9441E-01 -0.9770E-01  0.4799E+02  0.4799E+02
      6.962 -0.8422E+00 -0.8646E+00  0.4787E+02  0.4786E+02
      7.103 -0.6047E+00 -0.5685E+00  0.4778E+02  0.4778E+02
      7.244  0.1304E+02  0.1346E+02  0.4963E+02  0.4969E+02
      7.386  0.3549E+02  0.3588E+02  0.5464E+02  0.5476E+02
      7.527  0.3681E+02  0.3654E+02  0.5985E+02  0.5992E+02
      7.668  0.2159E+02  0.2143E+02  0.6290E+02  0.6295E+02
      7.810  0.2103E+02  0.2146E+02  0.6587E+02  0.6599E+02
      7.951  0.2416E+02  0.2390E+02  0.6929E+02  0.6937E+02
      8.093  0.1112E+02  0.1120E+02  0.7086E+02  0.7095E+02
      8.234  0.9971E+01  0.9983E+01  0.7227E+02  0.7236E+02
      8.375  0.8086E+01  0.8202E+01  0.7341E+02  0.7352E+02
      8.517  0.1093E+02  0.1116E+02  0.7496E+02  0.7510E+02
      8.658  0.7523E+01  0.6749E+01  0.7602E+02  0.7605E+02
      8.799  0.3556E+00  0.7718E-01  0.7607E+02  0.7606E+02
      8.941 -0.4512E+00 -0.4044E+00  0.7601E+02  0.7601E+02
      9.082 -0.5882E-01 -0.4612E-01  0.7600E+02  0.7600E+02
      9.224 -0.2054E-02 -0.1456E-02  0.7600E+02  0.7600E+02
      9.365 -0.2351E-04 -0.1518E-04  0.7600E+02  0.7600E+02
      9.506 -0.9331E-07 -0.5505E-07  0.7600E+02  0.7600E+02
      9.648 -0.1322E-09 -0.7212E-10  0.7600E+02  0.7600E+02
      9.789 -0.1028E-08 -0.1572E-08  0.7600E+02  0.7600E+02
      9.931 -0.5373E-06 -0.7699E-06  0.7600E+02  0.7600E+02
     10.072 -0.9917E-04 -0.1330E-03  0.7600E+02  0.7600E+02
     10.213 -0.6276E-02 -0.7854E-02  0.7600E+02  0.7600E+02
     10.355 -0.1259E+00 -0.1457E+00  0.7598E+02  0.7598E+02
     10.496 -0.5655E+00 -0.5711E+00  0.7590E+02  0.7590E+02
     10.637  0.1851E+01  0.2266E+01  0.7616E+02  0.7622E+02
     10.779  0.1023E+02  0.1063E+02  0.7761E+02  0.7772E+02
     10.920  0.9107E+01  0.8577E+01  0.7890E+02  0.7893E+02
     11.062  0.1912E+01  0.1614E+01  0.7917E+02  0.7916E+02
     11.203  0.3069E+01  0.3101E+01  0.7960E+02  0.7960E+02
     11.344  0.2777E+01  0.2782E+01  0.7999E+02  0.7999E+02
     11.486  0.2380E+00  0.2346E+00  0.8003E+02  0.8003E+02
     11.627 -0.1645E+00 -0.1640E+00  0.8000E+02  0.8000E+02
     11.768 -0.2470E-01 -0.2451E-01  0.8000E+02  0.8000E+02
     11.910 -0.9539E-03 -0.9433E-03  0.8000E+02  0.8000E+02
     12.051 -0.1197E-04 -0.1180E-04  0.8000E+02  0.8000E+02
     12.193 -0.5195E-07 -0.5106E-07  0.8000E+02  0.8000E+02
     12.334 -0.7994E-10 -0.7833E-10  0.8000E+02  0.8000E+02
     12.475 -0.4398E-13 -0.4241E-13  0.8000E+02  0.8000E+02
     12.617  0.0000E+00  0.0000E+00  0.8000E+02  0.8000E+02
     12.758  0.0000E+00  0.0000E+00  0.8000E+02  0.8000E+02
     12.899  0.0000E+00  0.0000E+00  0.8000E+02  0.8000E+02
     13.041  0.0000E+00  0.0000E+00  0.8000E+02  0.8000E+02
     13.182  0.0000E+00  0.0000E+00  0.8000E+02  0.8000E+02
