   12   12    1    2
  0.1356428E+02  0.5460000E-09  0.5460000E-09  0.5460000E-09  0.5000000E-15
  1.000000000000000E-004
  CAR 
 unknown system                          
     96      1     80
 
  0.0000000E+00  0.0000000E+00  0.0000000E+00  0.1000000E+01
    1      -27.228870    -27.231094
    2      -26.977744    -26.979662
    3      -26.977725    -26.979643
    4      -26.977725    -26.979643
    5      -13.424827    -13.440483
    6      -13.424827    -13.440483
    7      -13.424827    -13.440483
    8      -11.055755    -11.081533
    9      -10.829128    -10.856385
   10      -10.829128    -10.856385
   11      -10.829128    -10.856385
   12      -10.103013    -10.131931
   13      -10.000832    -10.002788
   14      -10.000832    -10.002788
   15      -10.000832    -10.002788
   16      -10.000822    -10.002778
   17      -10.000822    -10.002778
   18      -10.000822    -10.002778
   19       -9.446738     -9.448078
   20       -9.446738     -9.448078
   21       -9.446738     -9.448078
   22       -6.410986     -6.424360
   23       -6.410986     -6.424360
   24       -6.410986     -6.424360
   25        1.361403      1.344774
   26        1.361403      1.344774
   27        1.361409      1.344780
   28        1.463025      1.444484
   29        1.463025      1.444484
   30        1.463025      1.444484
   31        4.019310      3.998808
   32        4.019310      3.998808
   33        4.019310      3.998808
   34        4.019311      3.998809
   35        4.019311      3.998809
   36        4.019311      3.998809
   37        4.465056      4.440091
   38        4.465056      4.440091
   39        4.465056      4.440091
   40        4.465059      4.440095
   41        4.465059      4.440095
   42        4.465059      4.440095
   43        4.653127      4.631538
   44        4.653127      4.631538
   45        4.653127      4.631538
   46        4.662590      4.639300
   47        4.662596      4.639306
   48        4.662596      4.639306
   49        7.264829      7.263705
   50        7.264829      7.263705
   51        7.264829      7.263705
   52        7.358054      7.354683
   53        7.358054      7.354683
   54        7.358054      7.354683
   55        7.358063      7.354691
   56        7.358063      7.354691
   57        7.358063      7.354691
   58        7.518142      7.514323
   59        7.518142      7.514323
   60        7.518142      7.514323
   61        7.542592      7.541379
   62        7.542592      7.541379
   63        7.542592      7.541379
   64        7.828166      7.821018
   65        7.838286      7.834442
   66        7.838286      7.834442
   67        7.838286      7.834442
   68        7.838294      7.834450
   69        7.838294      7.834450
   70        7.838294      7.834450
   71        8.165245      8.155930
   72        8.165245      8.155930
   73        8.165245      8.155930
   74        8.483933      8.471692
   75        8.483946      8.471705
   76        8.483946      8.471705
   77       10.769586     10.760676
   78       10.769587     10.760678
   79       10.769593     10.760684
   80       11.182195     11.181783
