       N       E                     dE             d eps       ncg     rms          rms(c)
DAV:   1     0.982099962355E+03    0.98210E+03   -0.35110E+04   320   0.127E+03
DAV:   2     0.405129695316E+02   -0.94159E+03   -0.74003E+03   360   0.286E+02
DAV:   3    -0.116106890254E+03   -0.15662E+03   -0.14974E+03   380   0.137E+02
DAV:   4    -0.121547154525E+03   -0.54403E+01   -0.54390E+01   520   0.247E+01
DAV:   5    -0.121864186836E+03   -0.31703E+00   -0.31697E+00   460   0.464E+00    0.599E+01
DAV:   6    -0.118206183713E+03    0.36580E+01   -0.21747E+02   440   0.459E+01    0.761E+01
DAV:   7    -0.116813258009E+03    0.13929E+01   -0.42582E+02   320   0.886E+01    0.398E+01
DAV:   8    -0.114389588608E+03    0.24237E+01   -0.16371E+01   320   0.110E+01    0.297E+01
DAV:   9    -0.106958668343E+03    0.74309E+01   -0.80109E+00   440   0.114E+01    0.140E+01
DAV:  10    -0.104282411764E+03    0.26763E+01   -0.17268E+00   380   0.754E+00    0.667E+00
DAV:  11    -0.103351788179E+03    0.93062E+00   -0.61545E-01   400   0.442E+00    0.407E+00
DAV:  12    -0.103116614896E+03    0.23517E+00   -0.19257E-01   560   0.220E+00    0.276E+00
DAV:  13    -0.102967176838E+03    0.14944E+00   -0.73132E-02   320   0.225E+00    0.157E+00
DAV:  14    -0.102935209377E+03    0.31967E-01   -0.12744E-01   440   0.184E+00    0.131E+00
DAV:  15    -0.102953344106E+03   -0.18135E-01   -0.26485E-02   440   0.114E+00    0.173E+00
DAV:  16    -0.102938297118E+03    0.15047E-01   -0.16236E-02   380   0.112E+00    0.254E-01
DAV:  17    -0.102941645970E+03   -0.33489E-02   -0.43381E-03   420   0.508E-01    0.553E-01
DAV:  18    -0.102940210682E+03    0.14353E-02   -0.83526E-03   320   0.879E-01    0.530E-01
DAV:  19    -0.102938756204E+03    0.14545E-02   -0.10691E-03   380   0.283E-01    0.102E-01
DAV:  20    -0.102938677016E+03    0.79189E-04   -0.28608E-04   380   0.728E-02
   1 F= -.10293868E+03 E0= -.10297865E+03  d E =0.119932E+00  mag=    -0.1460
