<?xml version="1.0" encoding="ISO-8859-1"?>
<modeling>
 <generator>
  <i name="program" type="string">vasp </i>
  <i name="version" type="string">5.3.5  </i>
  <i name="subversion" type="string">31Mar14 (build Oct 26 2016 13:29:44) complex                          parallel </i>
  <i name="platform" type="string">GRP7IFC17NORMALVTST </i>
  <i name="date" type="string">2019 01 12 </i>
  <i name="time" type="string">23:35:32 </i>
 </generator>
 <incar>
  <i type="int" name="ISTART">     0</i>
  <i type="string" name="PREC">normal</i>
  <i type="int" name="ISPIN">     2</i>
  <i type="int" name="ICHARG">     2</i>
  <i type="int" name="IBRION">    -1</i>
  <i name="EDIFF">      0.00010000</i>
  <i name="EDIFFG">     -0.03000000</i>
  <i type="int" name="NSW">     0</i>
  <i type="int" name="ISIF">     2</i>
  <i type="int" name="ISYM">     1</i>
  <i name="ENCUT">    400.00000000</i>
  <i name="POTIM">      0.50000000</i>
  <i type="logical" name="LREAL"> F  </i>
  <i type="int" name="ISMEAR">     1</i>
  <i name="SIGMA">      0.20000000</i>
  <i type="string" name="GGA"> PE</i>
 </incar>
 <kpoints>
  <generation param="Monkhorst-Pack">
   <v type="int" name="divisions">       1        1        1 </v>
   <v name="usershift">      0.00000000       0.00000000       0.00000000 </v>
   <v name="genvec1">      1.00000000       0.00000000       0.00000000 </v>
   <v name="genvec2">      0.00000000       1.00000000       0.00000000 </v>
   <v name="genvec3">      0.00000000       0.00000000       1.00000000 </v>
   <v name="shift">      0.00000000       0.00000000       0.00000000 </v>
  </generation>
  <varray name="kpointlist" >
   <v>       0.00000000       0.00000000       0.00000000 </v>
  </varray>
  <varray name="weights" >
   <v>       1.00000000 </v>
  </varray>
 </kpoints>
 <parameters>
  <separator name="general" >
   <i type="string" name="SYSTEM">unknown system</i>
   <i type="logical" name="LCOMPAT"> F  </i>
  </separator>
  <separator name="electronic" >
   <i type="string" name="PREC">normal</i>
   <i name="ENMAX">    400.00000000</i>
   <i name="ENAUG">    605.39200000</i>
   <i name="EDIFF">      0.00010000</i>
   <i type="int" name="IALGO">    38</i>
   <i type="int" name="IWAVPR">    10</i>
   <i type="int" name="NBANDS">    80</i>
   <i name="NELECT">     96.00000000</i>
   <i type="int" name="TURBO">     0</i>
   <i type="int" name="IRESTART">     0</i>
   <i type="int" name="NREBOOT">     0</i>
   <i type="int" name="NMIN">     0</i>
   <i name="EREF">      0.00000000</i>
   <separator name="electronic smearing" >
    <i type="int" name="ISMEAR">     1</i>
    <i name="SIGMA">      0.20000000</i>
    <i name="KSPACING">      0.50000000</i>
    <i type="logical" name="KGAMMA"> T  </i>
   </separator>
   <separator name="electronic projectors" >
    <i type="logical" name="LREAL"> F  </i>
    <v name="ROPT">      0.00000000      0.00000000</v>
    <i type="int" name="LMAXPAW">  -100</i>
    <i type="int" name="LMAXMIX">     2</i>
    <i type="logical" name="NLSPLINE"> F  </i>
   </separator>
   <separator name="electronic startup" >
    <i type="int" name="ISTART">     0</i>
    <i type="int" name="ICHARG">     2</i>
    <i type="int" name="INIWAV">     1</i>
   </separator>
   <separator name="electronic spin" >
    <i type="int" name="ISPIN">     2</i>
    <i type="logical" name="LNONCOLLINEAR"> F  </i>
    <v name="MAGMOM">      1.00000000      1.00000000      1.00000000      1.00000000      1.00000000      1.00000000      1.00000000      1.00000000      1.00000000      1.00000000      1.00000000      1.00000000</v>
    <i name="NUPDOWN">     -1.00000000</i>
    <i type="logical" name="LSORBIT"> F  </i>
    <v name="SAXIS">      0.00000000      0.00000000      1.00000000</v>
    <i type="logical" name="LSPIRAL"> F  </i>
    <v name="QSPIRAL">      0.00000000      0.00000000      0.00000000</v>
    <i type="logical" name="LZEROZ"> F  </i>
   </separator>
   <separator name="electronic exchange-correlation" >
    <i type="logical" name="LASPH"> F  </i>
    <i type="logical" name="LMETAGGA"> F  </i>
   </separator>
   <separator name="electronic convergence" >
    <i type="int" name="NELM">    60</i>
    <i type="int" name="NELMDL">    -5</i>
    <i type="int" name="NELMIN">     2</i>
    <i name="ENINI">    400.00000000</i>
    <separator name="electronic convergence detail" >
     <i type="logical" name="LDIAG"> T  </i>
     <i type="logical" name="LSUBROT"> F  </i>
     <i name="WEIMIN">      0.00000000</i>
     <i name="EBREAK">      0.00000031</i>
     <i name="DEPER">      0.30000000</i>
     <i type="int" name="NRMM">     4</i>
     <i name="TIME">      0.40000000</i>
    </separator>
   </separator>
   <separator name="electronic mixer" >
    <i name="AMIX">      0.40000000</i>
    <i name="BMIX">      1.00000000</i>
    <i name="AMIN">      0.10000000</i>
    <i name="AMIX_MAG">      1.60000000</i>
    <i name="BMIX_MAG">      1.00000000</i>
    <separator name="electronic mixer details" >
     <i type="int" name="IMIX">     4</i>
     <i type="int" name="MAXMIX">   -45</i>
     <i name="WC">    100.00000000</i>
     <i type="int" name="INIMIX">     1</i>
     <i type="int" name="MIXPRE">     1</i>
     <i type="int" name="MREMOVE">     5</i>
    </separator>
   </separator>
   <separator name="electronic dipolcorrection" >
    <i type="logical" name="LDIPOL"> F  </i>
    <i type="logical" name="LMONO"> F  </i>
    <i type="int" name="IDIPOL">     0</i>
    <i name="EPSILON">      1.00000000</i>
    <v name="DIPOL">   -100.00000000   -100.00000000   -100.00000000</v>
    <i name="EFIELD">      0.00000000</i>
   </separator>
  </separator>
  <separator name="grids" >
   <i type="int" name="NGX">    28</i>
   <i type="int" name="NGY">    28</i>
   <i type="int" name="NGZ">    28</i>
   <i type="int" name="NGXF">    56</i>
   <i type="int" name="NGYF">    56</i>
   <i type="int" name="NGZF">    56</i>
   <i type="logical" name="ADDGRID"> F  </i>
  </separator>
  <separator name="ionic" >
   <i type="int" name="NSW">     0</i>
   <i type="int" name="IBRION">    -1</i>
   <i type="int" name="ISIF">     2</i>
   <i name="PSTRESS">      0.00000000</i>
   <i name="EDIFFG">     -0.03000000</i>
   <i type="int" name="NFREE">     0</i>
   <i name="POTIM">      0.50000000</i>
   <i name="SMASS">     -3.00000000</i>
   <i name="SCALEE">      1.00000000</i>
  </separator>
  <separator name="ionic md" >
   <i name="TEBEG">      0.00010000</i>
   <i name="TEEND">      0.00010000</i>
   <i type="int" name="NBLOCK">     1</i>
   <i type="int" name="KBLOCK">     1</i>
   <i type="int" name="NPACO">   256</i>
   <i name="APACO">     16.00000000</i>
  </separator>
  <separator name="symmetry" >
   <i type="int" name="ISYM">     1</i>
   <i name="SYMPREC">      0.00001000</i>
  </separator>
  <separator name="dos" >
   <i type="logical" name="LORBIT"> F  </i>
   <v name="RWIGS">     -1.00000000     -1.00000000</v>
   <i type="int" name="NEDOS">   301</i>
   <i name="EMIN">     10.00000000</i>
   <i name="EMAX">    -10.00000000</i>
   <i name="EFERMI">      0.00000000</i>
  </separator>
  <separator name="writing" >
   <i type="int" name="NWRITE">     2</i>
   <i type="logical" name="LWAVE"> T  </i>
   <i type="logical" name="LCHARG"> T  </i>
   <i type="logical" name="LPARD"> F  </i>
   <i type="logical" name="LVTOT"> F  </i>
   <i type="logical" name="LVHAR"> F  </i>
   <i type="logical" name="LELF"> F  </i>
   <i type="logical" name="LOPTICS"> F  </i>
   <v name="STM">      0.00000000      0.00000000      0.00000000      0.00000000      0.00000000      0.00000000      0.00000000</v>
  </separator>
  <separator name="performance" >
   <i type="int" name="NPAR">    20</i>
   <i type="int" name="NSIM">     4</i>
   <i type="int" name="NBLK">    -1</i>
   <i type="logical" name="LPLANE"> T  </i>
   <i type="logical" name="LSCALAPACK"> T  </i>
   <i type="logical" name="LSCAAWARE"> F  </i>
   <i type="logical" name="LSCALU"> F  </i>
   <i type="logical" name="LASYNC"> F  </i>
   <i type="logical" name="LORBITALREAL"> F  </i>
  </separator>
  <separator name="miscellaneous" >
   <i type="int" name="IDIOT">     3</i>
   <i type="logical" name="LMUSIC"> F  </i>
   <v name="POMASS">    140.11500000     16.00000000</v>
   <v name="DARWINR">      0.00000000      0.00000000</v>
   <v name="DARWINV">      1.00000000      1.00000000</v>
   <i type="logical" name="LCORR"> T  </i>
  </separator>
  <i type="logical" name="GGA_COMPAT"> T  </i>
  <i type="logical" name="LBERRY"> F  </i>
  <i type="int" name="ICORELEVEL">     0</i>
  <i type="logical" name="LDAU"> F  </i>
  <i type="int" name="I_CONSTRAINED_M">     0</i>
  <separator name="electronic exchange-correlation" >
   <i type="string" name="GGA">PE</i>
   <i type="int" name="VOSKOWN">     0</i>
   <i type="logical" name="LHFCALC"> F  </i>
   <i type="string" name="PRECFOCK"></i>
   <i type="logical" name="LSYMGRAD"> F  </i>
   <i type="logical" name="LHFONE"> F  </i>
   <i type="logical" name="LRHFCALC"> F  </i>
   <i type="logical" name="LTHOMAS"> F  </i>
   <i type="logical" name="LMODELHF"> F  </i>
   <i name="ENCUT4O">     -1.00000000</i>
   <i type="int" name="EXXOEP">     0</i>
   <i type="int" name="FOURORBIT">     0</i>
   <i name="AEXX">      0.00000000</i>
   <i name="HFALPHA">      0.00000000</i>
   <i name="MCALPHA">      0.00000000</i>
   <i name="ALDAX">      1.00000000</i>
   <i name="AGGAX">      1.00000000</i>
   <i name="ALDAC">      1.00000000</i>
   <i name="AGGAC">      1.00000000</i>
   <i type="int" name="NKREDX">     1</i>
   <i type="int" name="NKREDY">     1</i>
   <i type="int" name="NKREDZ">     1</i>
   <i type="logical" name="SHIFTRED"> F  </i>
   <i type="logical" name="ODDONLY"> F  </i>
   <i type="logical" name="EVENONLY"> F  </i>
   <i type="int" name="LMAXFOCK">     0</i>
   <i type="int" name="NMAXFOCKAE">     0</i>
   <i type="logical" name="LFOCKAEDFT"> F  </i>
   <i name="HFSCREEN">      0.00000000</i>
   <i name="HFSCREENC">      0.00000000</i>
   <i type="int" name="NBANDSGWLOW">     0</i>
  </separator>
  <separator name="vdW DFT" >
   <i type="logical" name="LUSE_VDW"> F  </i>
   <i name="Zab_VDW">     -0.84910000</i>
   <i name="PARAM1">      0.12340000</i>
   <i name="PARAM2">      1.00000000</i>
   <i name="PARAM3">      0.00000000</i>
  </separator>
  <separator name="model GW" >
   <i type="int" name="MODEL_GW">     0</i>
   <i name="MODEL_EPS0">      8.13856697</i>
   <i name="MODEL_ALPHA">      1.00000000</i>
  </separator>
  <separator name="linear response parameters" >
   <i type="logical" name="LEPSILON"> F  </i>
   <i type="logical" name="LRPA"> F  </i>
   <i type="logical" name="LNABLA"> F  </i>
   <i type="logical" name="LVEL"> F  </i>
   <i type="int" name="KINTER">     0</i>
   <i name="CSHIFT">      0.10000000</i>
   <i name="OMEGAMAX">     -1.00000000</i>
   <i name="DEG_THRESHOLD">      0.00200000</i>
  </separator>
  <separator name="orbital magnetization" >
   <i type="logical" name="NUCIND"> F  </i>
   <v name="MAGPOS">      0.00000000      0.00000000      0.00000000</v>
   <i type="logical" name="LNICSALL"> T  </i>
   <i type="logical" name="ORBITALMAG"> F  </i>
   <i type="logical" name="LMAGBLOCH"> F  </i>
   <i type="logical" name="LCHIMAG"> F  </i>
   <i type="logical" name="LGAUGE"> T  </i>
   <i type="int" name="MAGATOM">     0</i>
   <v name="MAGDIPOL">      0.00000000      0.00000000      0.00000000</v>
   <v name="AVECCONST">      0.00000000      0.00000000      0.00000000</v>
  </separator>
  <separator name="response functions" >
   <i type="logical" name="LADDER"> F  </i>
   <i type="logical" name="LFXC"> F  </i>
   <i type="logical" name="LHARTREE"> T  </i>
   <i type="int" name="IBSE">     0</i>
   <i type="logical" name="LTCTE"> F  </i>
   <i type="logical" name="LTETE"> F  </i>
   <i type="logical" name="LTRIPLET"> F  </i>
   <i type="logical" name="LFXCEPS"> F  </i>
   <i type="logical" name="LFXHEG"> F  </i>
   <i type="logical" name="L2ORDER"> F  </i>
   <i type="logical" name="LUSEW"> F  </i>
   <i name="ENCUTGW">     -2.00000000</i>
   <i name="ENCUTGWSOFT">     -2.00000000</i>
   <i name="ENCUTLF">     -1.00000000</i>
   <i type="int" name="LMAXMP2">    -1</i>
   <i name="SCISSOR">      0.00000000</i>
   <i type="int" name="NOMEGA">     0</i>
   <i type="int" name="NOMEGAR">     0</i>
   <i type="int" name="NBANDSGW">    -1</i>
   <i type="int" name="NBANDSO">    -1</i>
   <i type="int" name="NBANDSV">    -1</i>
   <i type="int" name="NELM">     1</i>
   <i type="int" name="DIM">     3</i>
   <i type="int" name="ANTIRES">     0</i>
   <i name="OMEGAMAX">    -30.00000000</i>
   <i name="OMEGAMIN">    -30.00000000</i>
   <i name="OMEGATL">   -200.00000000</i>
   <i type="int" name="OMEGAGRID">     0</i>
   <i name="CSHIFT">     -0.10000000</i>
   <i type="logical" name="SELFENERGY"> F  </i>
   <i type="logical" name="LSPECTRAL"> F  </i>
   <i type="logical" name="ODDONLYGW"> F  </i>
   <i type="logical" name="EVENONLYGW"> F  </i>
   <i type="int" name="NKREDLFX">     1</i>
   <i type="int" name="NKREDLFY">     1</i>
   <i type="int" name="NKREDLFZ">     1</i>
   <i type="int" name="MAXMEM">  1800</i>
   <i type="int" name="TELESCOPE">     0</i>
   <i type="int" name="TAUPAR">     1</i>
  </separator>
  <separator name="External order field" >
   <i name="OFIELD_KAPPA">      0.00000000</i>
   <v name="OFIELD_K">      0.00000000      0.00000000      0.00000000</v>
   <i name="OFIELD_Q6_NEAR">      0.00000000</i>
   <i name="OFIELD_Q6_FAR">      0.00000000</i>
   <i name="OFIELD_A">      0.00000000</i>
  </separator>
 </parameters>
 <atominfo>
  <atoms>      12 </atoms>
  <types>       2 </types>
  <array name="atoms" >
   <dimension dim="1">ion</dimension>
   <field type="string">element</field>
   <field type="int">atomtype</field>
   <set>
    <rc><c>Ce</c><c>   1</c></rc>
    <rc><c>Ce</c><c>   1</c></rc>
    <rc><c>Ce</c><c>   1</c></rc>
    <rc><c>Ce</c><c>   1</c></rc>
    <rc><c>O </c><c>   2</c></rc>
    <rc><c>O </c><c>   2</c></rc>
    <rc><c>O </c><c>   2</c></rc>
    <rc><c>O </c><c>   2</c></rc>
    <rc><c>O </c><c>   2</c></rc>
    <rc><c>O </c><c>   2</c></rc>
    <rc><c>O </c><c>   2</c></rc>
    <rc><c>O </c><c>   2</c></rc>
   </set>
  </array>
  <array name="atomtypes" >
   <dimension dim="1">type</dimension>
   <field type="int">atomspertype</field>
   <field type="string">element</field>
   <field>mass</field>
   <field>valence</field>
   <field type="string">pseudopotential</field>
   <set>
    <rc><c>   4</c><c>Ce</c><c>    140.11500000</c><c>     12.00000000</c><c>  PAW_PBE Ce 23Dec2003                  </c></rc>
    <rc><c>   8</c><c>O </c><c>     16.00000000</c><c>      6.00000000</c><c>  PAW_PBE O 08Apr2002                   </c></rc>
   </set>
  </array>
 </atominfo>
 <structure name="initialpos" >
  <crystal>
   <varray name="basis" >
    <v>       5.46000004       0.00000000       0.00000000 </v>
    <v>       0.00000000       5.46000004       0.00000000 </v>
    <v>       0.00000000       0.00000000       5.46000004 </v>
   </varray>
   <i name="volume">    162.77133941 </i>
   <varray name="rec_basis" >
    <v>       0.18315018       0.00000000       0.00000000 </v>
    <v>       0.00000000       0.18315018       0.00000000 </v>
    <v>       0.00000000       0.00000000       0.18315018 </v>
   </varray>
  </crystal>
  <varray name="positions" >
   <v>       0.00000000       0.00000000       0.00000000 </v>
   <v>       0.00000000       0.50000000       0.50000000 </v>
   <v>       0.50000000       0.00000000       0.50000000 </v>
   <v>       0.50000000       0.50000000       0.00000000 </v>
   <v>       0.25000000       0.25000000       0.25000000 </v>
   <v>       0.75000004       0.75000004       0.75000004 </v>
   <v>       0.75000004       0.75000004       0.25000000 </v>
   <v>       0.25000000       0.25000000       0.75000004 </v>
   <v>       0.75000004       0.25000000       0.75000004 </v>
   <v>       0.25000000       0.75000004       0.25000000 </v>
   <v>       0.25000000       0.75000004       0.75000004 </v>
   <v>       0.75000004       0.25000000       0.25000000 </v>
  </varray>
 </structure>
 <calculation>
  <scstep>
   <time name="dav">    0.11    0.11</time>
   <time name="total">    0.14    0.14</time>
   <energy>
    <i name="alphaZ">    523.04161235 </i>
    <i name="ewald">  -6855.71551996 </i>
    <i name="hartreedc">  -1260.59073606 </i>
    <i name="XCdc">    246.80559147 </i>
    <i name="pawpsdc">   6174.39812913 </i>
    <i name="pawaedc">  -6091.77314547 </i>
    <i name="eentropy">     -0.00741350 </i>
    <i name="bandstr">    535.67182066 </i>
    <i name="atom">   7710.26962373 </i>
    <i name="e_fr_energy">    982.09996235 </i>
    <i name="e_wo_entrp">    982.10737586 </i>
    <i name="e_0_energy">    982.10243352 </i>
   </energy>
  </scstep>
  <scstep>
   <time name="dav">    0.11    0.11</time>
   <time name="total">    0.11    0.12</time>
   <energy>
    <i name="e_fr_energy">     40.51296953 </i>
    <i name="e_wo_entrp">     40.52871072 </i>
    <i name="e_0_energy">     40.51821659 </i>
   </energy>
  </scstep>
  <scstep>
   <time name="dav">    0.12    0.12</time>
   <time name="total">    0.12    0.12</time>
   <energy>
    <i name="e_fr_energy">   -116.10689025 </i>
    <i name="e_wo_entrp">   -116.12213545 </i>
    <i name="e_0_energy">   -116.11197198 </i>
   </energy>
  </scstep>
  <scstep>
   <time name="dav">    0.17    0.17</time>
   <time name="total">    0.17    0.17</time>
   <energy>
    <i name="e_fr_energy">   -121.54715452 </i>
    <i name="e_wo_entrp">   -121.58742535 </i>
    <i name="e_0_energy">   -121.56057813 </i>
   </energy>
  </scstep>
  <scstep>
   <time name="dav">    0.16    0.16</time>
   <time name="total">    0.24    0.24</time>
   <energy>
    <i name="e_fr_energy">   -121.86418684 </i>
    <i name="e_wo_entrp">   -121.90428347 </i>
    <i name="e_0_energy">   -121.87755238 </i>
   </energy>
  </scstep>
  <scstep>
   <time name="dav">    0.14    0.14</time>
   <time name="total">    0.25    0.25</time>
   <energy>
    <i name="e_fr_energy">   -118.20618371 </i>
    <i name="e_wo_entrp">   -117.60372920 </i>
    <i name="e_0_energy">   -118.00536554 </i>
   </energy>
  </scstep>
  <scstep>
   <time name="dav">    0.10    0.10</time>
   <time name="total">    0.21    0.21</time>
   <energy>
    <i name="e_fr_energy">   -116.81325801 </i>
    <i name="e_wo_entrp">   -116.86399739 </i>
    <i name="e_0_energy">   -116.83017114 </i>
   </energy>
  </scstep>
  <scstep>
   <time name="dav">    0.10    0.10</time>
   <time name="total">    0.21    0.21</time>
   <energy>
    <i name="e_fr_energy">   -114.38958861 </i>
    <i name="e_wo_entrp">   -114.46549259 </i>
    <i name="e_0_energy">   -114.41488993 </i>
   </energy>
  </scstep>
  <scstep>
   <time name="dav">    0.14    0.14</time>
   <time name="total">    0.25    0.25</time>
   <energy>
    <i name="e_fr_energy">   -106.95866834 </i>
    <i name="e_wo_entrp">   -107.03633806 </i>
    <i name="e_0_energy">   -106.98455825 </i>
   </energy>
  </scstep>
  <scstep>
   <time name="dav">    0.13    0.13</time>
   <time name="total">    0.23    0.23</time>
   <energy>
    <i name="e_fr_energy">   -104.28241176 </i>
    <i name="e_wo_entrp">   -104.36430047 </i>
    <i name="e_0_energy">   -104.30970800 </i>
   </energy>
  </scstep>
  <scstep>
   <time name="dav">    0.13    0.13</time>
   <time name="total">    0.24    0.24</time>
   <energy>
    <i name="e_fr_energy">   -103.35178818 </i>
    <i name="e_wo_entrp">   -103.44107067 </i>
    <i name="e_0_energy">   -103.38154901 </i>
   </energy>
  </scstep>
  <scstep>
   <time name="dav">    0.18    0.18</time>
   <time name="total">    0.29    0.29</time>
   <energy>
    <i name="e_fr_energy">   -103.11661490 </i>
    <i name="e_wo_entrp">   -103.21256618 </i>
    <i name="e_0_energy">   -103.14859866 </i>
   </energy>
  </scstep>
  <scstep>
   <time name="dav">    0.11    0.11</time>
   <time name="total">    0.21    0.22</time>
   <energy>
    <i name="e_fr_energy">   -102.96717684 </i>
    <i name="e_wo_entrp">   -103.07586442 </i>
    <i name="e_0_energy">   -103.00340603 </i>
   </energy>
  </scstep>
  <scstep>
   <time name="dav">    0.14    0.14</time>
   <time name="total">    0.25    0.25</time>
   <energy>
    <i name="e_fr_energy">   -102.93520938 </i>
    <i name="e_wo_entrp">   -103.05629626 </i>
    <i name="e_0_energy">   -102.97557167 </i>
   </energy>
  </scstep>
  <scstep>
   <time name="dav">    0.14    0.14</time>
   <time name="total">    0.25    0.25</time>
   <energy>
    <i name="e_fr_energy">   -102.95334411 </i>
    <i name="e_wo_entrp">   -103.08620755 </i>
    <i name="e_0_energy">   -102.99763192 </i>
   </energy>
  </scstep>
  <scstep>
   <time name="dav">    0.12    0.12</time>
   <time name="total">    0.23    0.23</time>
   <energy>
    <i name="e_fr_energy">   -102.93829712 </i>
    <i name="e_wo_entrp">   -103.05947047 </i>
    <i name="e_0_energy">   -102.97868824 </i>
   </energy>
  </scstep>
  <scstep>
   <time name="dav">    0.13    0.13</time>
   <time name="total">    0.24    0.24</time>
   <energy>
    <i name="e_fr_energy">   -102.94164597 </i>
    <i name="e_wo_entrp">   -103.06780338 </i>
    <i name="e_0_energy">   -102.98369844 </i>
   </energy>
  </scstep>
  <scstep>
   <time name="dav">    0.10    0.10</time>
   <time name="total">    0.21    0.21</time>
   <energy>
    <i name="e_fr_energy">   -102.94021068 </i>
    <i name="e_wo_entrp">   -103.05698200 </i>
    <i name="e_0_energy">   -102.97913446 </i>
   </energy>
  </scstep>
  <scstep>
   <time name="dav">    0.12    0.12</time>
   <time name="total">    0.23    0.23</time>
   <energy>
    <i name="e_fr_energy">   -102.93875620 </i>
    <i name="e_wo_entrp">   -103.05813065 </i>
    <i name="e_0_energy">   -102.97854768 </i>
   </energy>
  </scstep>
  <scstep>
   <time name="dav">    0.13    0.13</time>
   <time name="total">    0.15    0.16</time>
   <energy>
    <i name="alphaZ">    523.04161235 </i>
    <i name="ewald">  -6855.71551996 </i>
    <i name="hartreedc">  -1377.58419557 </i>
    <i name="XCdc">    254.33529621 </i>
    <i name="pawpsdc">   7406.39611612 </i>
    <i name="pawaedc">  -7318.33265704 </i>
    <i name="eentropy">      0.11993177 </i>
    <i name="bandstr">   -445.46888462 </i>
    <i name="atom">   7710.26962373 </i>
    <i name="e_fr_energy">   -102.93867702 </i>
    <i name="e_wo_entrp">   -103.05860878 </i>
    <i name="e_0_energy">   -102.97865427 </i>
   </energy>
  </scstep>
  <structure>
   <crystal>
    <varray name="basis" >
     <v>       5.46000004       0.00000000       0.00000000 </v>
     <v>       0.00000000       5.46000004       0.00000000 </v>
     <v>       0.00000000       0.00000000       5.46000004 </v>
    </varray>
    <i name="volume">    162.77133941 </i>
    <varray name="rec_basis" >
     <v>       0.18315018       0.00000000       0.00000000 </v>
     <v>       0.00000000       0.18315018       0.00000000 </v>
     <v>       0.00000000       0.00000000       0.18315018 </v>
    </varray>
   </crystal>
   <varray name="positions" >
    <v>       0.00000000       0.00000000       0.00000000 </v>
    <v>       0.00000000       0.50000000       0.50000000 </v>
    <v>       0.50000000       0.00000000       0.50000000 </v>
    <v>       0.50000000       0.50000000       0.00000000 </v>
    <v>       0.25000000       0.25000000       0.25000000 </v>
    <v>       0.75000004       0.75000004       0.75000004 </v>
    <v>       0.75000004       0.75000004       0.25000000 </v>
    <v>       0.25000000       0.25000000       0.75000004 </v>
    <v>       0.75000004       0.25000000       0.75000004 </v>
    <v>       0.25000000       0.75000004       0.25000000 </v>
    <v>       0.25000000       0.75000004       0.75000004 </v>
    <v>       0.75000004       0.25000000       0.25000000 </v>
   </varray>
  </structure>
  <varray name="forces" >
   <v>      -0.00000000      -0.00000000       0.00000000 </v>
   <v>      -0.00000000      -0.00000000       0.00000000 </v>
   <v>      -0.00000000      -0.00000000       0.00000000 </v>
   <v>      -0.00000000      -0.00000000       0.00000000 </v>
   <v>       0.00000000      -0.00000000      -0.00000000 </v>
   <v>      -0.00000000       0.00000000       0.00000000 </v>
   <v>      -0.00000000       0.00000000      -0.00000000 </v>
   <v>       0.00000000      -0.00000000       0.00000000 </v>
   <v>      -0.00000000      -0.00000000       0.00000000 </v>
   <v>       0.00000000       0.00000000      -0.00000000 </v>
   <v>       0.00000000       0.00000000       0.00000000 </v>
   <v>       0.00000000      -0.00000000      -0.00000000 </v>
  </varray>
  <varray name="stress" >
   <v>     -22.14459024       0.00000000       0.00000000 </v>
   <v>      -0.00000000     -22.14459024       0.00000000 </v>
   <v>       0.00000000      -0.00000000     -22.14459024 </v>
  </varray>
  <energy>
   <i name="e_fr_energy">   -102.93867702 </i>
   <i name="e_wo_entrp">   -102.97865427 </i>
   <i name="e_0_energy">      0.11993177 </i>
  </energy>
  <time name="totalsc">    4.94    5.04</time>
  <eigenvalues>
   <array>
    <dimension dim="1">band</dimension>
    <dimension dim="2">kpoint</dimension>
    <dimension dim="3">spin</dimension>
    <field>eigene</field>
    <field>occ</field>
    <set>
     <set comment="spin 1">
      <set comment="kpoint 1">
       <r>  -27.2289    1.0000 </r>
       <r>  -26.9777    1.0000 </r>
       <r>  -26.9777    1.0000 </r>
       <r>  -26.9777    1.0000 </r>
       <r>  -13.4248    1.0000 </r>
       <r>  -13.4248    1.0000 </r>
       <r>  -13.4248    1.0000 </r>
       <r>  -11.0558    1.0000 </r>
       <r>  -10.8291    1.0000 </r>
       <r>  -10.8291    1.0000 </r>
       <r>  -10.8291    1.0000 </r>
       <r>  -10.1030    1.0000 </r>
       <r>  -10.0008    1.0000 </r>
       <r>  -10.0008    1.0000 </r>
       <r>  -10.0008    1.0000 </r>
       <r>  -10.0008    1.0000 </r>
       <r>  -10.0008    1.0000 </r>
       <r>  -10.0008    1.0000 </r>
       <r>   -9.4467    1.0000 </r>
       <r>   -9.4467    1.0000 </r>
       <r>   -9.4467    1.0000 </r>
       <r>   -6.4110    1.0000 </r>
       <r>   -6.4110    1.0000 </r>
       <r>   -6.4110    1.0000 </r>
       <r>    1.3614    1.0000 </r>
       <r>    1.3614    1.0000 </r>
       <r>    1.3614    1.0000 </r>
       <r>    1.4630    1.0000 </r>
       <r>    1.4630    1.0000 </r>
       <r>    1.4630    1.0000 </r>
       <r>    4.0193    1.0000 </r>
       <r>    4.0193    1.0000 </r>
       <r>    4.0193    1.0000 </r>
       <r>    4.0193    1.0000 </r>
       <r>    4.0193    1.0000 </r>
       <r>    4.0193    1.0000 </r>
       <r>    4.4651    1.0190 </r>
       <r>    4.4651    1.0190 </r>
       <r>    4.4651    1.0190 </r>
       <r>    4.4651    1.0190 </r>
       <r>    4.4651    1.0190 </r>
       <r>    4.4651    1.0190 </r>
       <r>    4.6531    0.9759 </r>
       <r>    4.6531    0.9759 </r>
       <r>    4.6531    0.9759 </r>
       <r>    4.6626    0.9605 </r>
       <r>    4.6626    0.9605 </r>
       <r>    4.6626    0.9605 </r>
       <r>    7.2648   -0.0000 </r>
       <r>    7.2648   -0.0000 </r>
       <r>    7.2648   -0.0000 </r>
       <r>    7.3581   -0.0000 </r>
       <r>    7.3581   -0.0000 </r>
       <r>    7.3581   -0.0000 </r>
       <r>    7.3581   -0.0000 </r>
       <r>    7.3581   -0.0000 </r>
       <r>    7.3581   -0.0000 </r>
       <r>    7.5181   -0.0000 </r>
       <r>    7.5181   -0.0000 </r>
       <r>    7.5181   -0.0000 </r>
       <r>    7.5426   -0.0000 </r>
       <r>    7.5426   -0.0000 </r>
       <r>    7.5426   -0.0000 </r>
       <r>    7.8282   -0.0000 </r>
       <r>    7.8383   -0.0000 </r>
       <r>    7.8383   -0.0000 </r>
       <r>    7.8383   -0.0000 </r>
       <r>    7.8383   -0.0000 </r>
       <r>    7.8383   -0.0000 </r>
       <r>    7.8383   -0.0000 </r>
       <r>    8.1652   -0.0000 </r>
       <r>    8.1652   -0.0000 </r>
       <r>    8.1652   -0.0000 </r>
       <r>    8.4839   -0.0000 </r>
       <r>    8.4839   -0.0000 </r>
       <r>    8.4839   -0.0000 </r>
       <r>   10.7696    0.0000 </r>
       <r>   10.7696    0.0000 </r>
       <r>   10.7696    0.0000 </r>
       <r>   11.1822    0.0000 </r>
      </set>
     </set>
     <set comment="spin 2">
      <set comment="kpoint 1">
       <r>  -27.2311    1.0000 </r>
       <r>  -26.9797    1.0000 </r>
       <r>  -26.9796    1.0000 </r>
       <r>  -26.9796    1.0000 </r>
       <r>  -13.4405    1.0000 </r>
       <r>  -13.4405    1.0000 </r>
       <r>  -13.4405    1.0000 </r>
       <r>  -11.0815    1.0000 </r>
       <r>  -10.8564    1.0000 </r>
       <r>  -10.8564    1.0000 </r>
       <r>  -10.8564    1.0000 </r>
       <r>  -10.1319    1.0000 </r>
       <r>  -10.0028    1.0000 </r>
       <r>  -10.0028    1.0000 </r>
       <r>  -10.0028    1.0000 </r>
       <r>  -10.0028    1.0000 </r>
       <r>  -10.0028    1.0000 </r>
       <r>  -10.0028    1.0000 </r>
       <r>   -9.4481    1.0000 </r>
       <r>   -9.4481    1.0000 </r>
       <r>   -9.4481    1.0000 </r>
       <r>   -6.4244    1.0000 </r>
       <r>   -6.4244    1.0000 </r>
       <r>   -6.4244    1.0000 </r>
       <r>    1.3448    1.0000 </r>
       <r>    1.3448    1.0000 </r>
       <r>    1.3448    1.0000 </r>
       <r>    1.4445    1.0000 </r>
       <r>    1.4445    1.0000 </r>
       <r>    1.4445    1.0000 </r>
       <r>    3.9988    1.0000 </r>
       <r>    3.9988    1.0000 </r>
       <r>    3.9988    1.0000 </r>
       <r>    3.9988    1.0000 </r>
       <r>    3.9988    1.0000 </r>
       <r>    3.9988    1.0000 </r>
       <r>    4.4401    1.0139 </r>
       <r>    4.4401    1.0139 </r>
       <r>    4.4401    1.0139 </r>
       <r>    4.4401    1.0139 </r>
       <r>    4.4401    1.0139 </r>
       <r>    4.4401    1.0139 </r>
       <r>    4.6315    1.0032 </r>
       <r>    4.6315    1.0032 </r>
       <r>    4.6315    1.0032 </r>
       <r>    4.6393    0.9946 </r>
       <r>    4.6393    0.9946 </r>
       <r>    4.6393    0.9946 </r>
       <r>    7.2637   -0.0000 </r>
       <r>    7.2637   -0.0000 </r>
       <r>    7.2637   -0.0000 </r>
       <r>    7.3547   -0.0000 </r>
       <r>    7.3547   -0.0000 </r>
       <r>    7.3547   -0.0000 </r>
       <r>    7.3547   -0.0000 </r>
       <r>    7.3547   -0.0000 </r>
       <r>    7.3547   -0.0000 </r>
       <r>    7.5143   -0.0000 </r>
       <r>    7.5143   -0.0000 </r>
       <r>    7.5143   -0.0000 </r>
       <r>    7.5414   -0.0000 </r>
       <r>    7.5414   -0.0000 </r>
       <r>    7.5414   -0.0000 </r>
       <r>    7.8210   -0.0000 </r>
       <r>    7.8344   -0.0000 </r>
       <r>    7.8344   -0.0000 </r>
       <r>    7.8344   -0.0000 </r>
       <r>    7.8345   -0.0000 </r>
       <r>    7.8345   -0.0000 </r>
       <r>    7.8345   -0.0000 </r>
       <r>    8.1559   -0.0000 </r>
       <r>    8.1559   -0.0000 </r>
       <r>    8.1559   -0.0000 </r>
       <r>    8.4717   -0.0000 </r>
       <r>    8.4717   -0.0000 </r>
       <r>    8.4717   -0.0000 </r>
       <r>   10.7607    0.0000 </r>
       <r>   10.7607    0.0000 </r>
       <r>   10.7607    0.0000 </r>
       <r>   11.1818    0.0000 </r>
      </set>
     </set>
    </set>
   </array>
  </eigenvalues>
  <separator name="orbital magnetization" >
   <v name="MAGDIPOLOUT">      0.00000000      0.00000000      0.00000000</v>
  </separator>
  <dos>
   <i name="efermi">      4.80295970 </i>
   <total>
    <array>
     <dimension dim="1">gridpoints</dimension>
     <dimension dim="2">spin</dimension>
     <field>energy</field>
     <field>total</field>
     <field>integrated</field>
     <set>
      <set comment="spin 1">
       <r>   -29.2311     0.0000     0.0000 </r>
       <r>   -29.0897     0.0000     0.0000 </r>
       <r>   -28.9483    -0.0000    -0.0000 </r>
       <r>   -28.8070    -0.0000    -0.0000 </r>
       <r>   -28.6656    -0.0000    -0.0000 </r>
       <r>   -28.5242    -0.0000    -0.0000 </r>
       <r>   -28.3828    -0.0000    -0.0000 </r>
       <r>   -28.2415    -0.0000    -0.0000 </r>
       <r>   -28.1001    -0.0000    -0.0000 </r>
       <r>   -27.9587    -0.0000    -0.0000 </r>
       <r>   -27.8173    -0.0009    -0.0001 </r>
       <r>   -27.6759    -0.0238    -0.0035 </r>
       <r>   -27.5346    -0.1681    -0.0273 </r>
       <r>   -27.3932     0.0945    -0.0139 </r>
       <r>   -27.2518     2.2574     0.3053 </r>
       <r>   -27.1104     5.4592     1.0771 </r>
       <r>   -26.9691    11.0887     2.6447 </r>
       <r>   -26.8277     9.1368     3.9365 </r>
       <r>   -26.6863     1.0785     4.0890 </r>
       <r>   -26.5449    -0.5328     4.0136 </r>
       <r>   -26.4035    -0.0924     4.0006 </r>
       <r>   -26.2622    -0.0039     4.0000 </r>
       <r>   -26.1208    -0.0001     4.0000 </r>
       <r>   -25.9794    -0.0000     4.0000 </r>
       <r>   -25.8380    -0.0000     4.0000 </r>
       <r>   -25.6967    -0.0000     4.0000 </r>
       <r>   -25.5553     0.0000     4.0000 </r>
       <r>   -25.4139     0.0000     4.0000 </r>
       <r>   -25.2725     0.0000     4.0000 </r>
       <r>   -25.1311     0.0000     4.0000 </r>
       <r>   -24.9898     0.0000     4.0000 </r>
       <r>   -24.8484     0.0000     4.0000 </r>
       <r>   -24.7070     0.0000     4.0000 </r>
       <r>   -24.5656     0.0000     4.0000 </r>
       <r>   -24.4243     0.0000     4.0000 </r>
       <r>   -24.2829     0.0000     4.0000 </r>
       <r>   -24.1415     0.0000     4.0000 </r>
       <r>   -24.0001     0.0000     4.0000 </r>
       <r>   -23.8587     0.0000     4.0000 </r>
       <r>   -23.7174     0.0000     4.0000 </r>
       <r>   -23.5760     0.0000     4.0000 </r>
       <r>   -23.4346     0.0000     4.0000 </r>
       <r>   -23.2932     0.0000     4.0000 </r>
       <r>   -23.1519     0.0000     4.0000 </r>
       <r>   -23.0105     0.0000     4.0000 </r>
       <r>   -22.8691     0.0000     4.0000 </r>
       <r>   -22.7277     0.0000     4.0000 </r>
       <r>   -22.5863     0.0000     4.0000 </r>
       <r>   -22.4450     0.0000     4.0000 </r>
       <r>   -22.3036     0.0000     4.0000 </r>
       <r>   -22.1622     0.0000     4.0000 </r>
       <r>   -22.0208     0.0000     4.0000 </r>
       <r>   -21.8795     0.0000     4.0000 </r>
       <r>   -21.7381     0.0000     4.0000 </r>
       <r>   -21.5967     0.0000     4.0000 </r>
       <r>   -21.4553     0.0000     4.0000 </r>
       <r>   -21.3139     0.0000     4.0000 </r>
       <r>   -21.1726     0.0000     4.0000 </r>
       <r>   -21.0312     0.0000     4.0000 </r>
       <r>   -20.8898     0.0000     4.0000 </r>
       <r>   -20.7484     0.0000     4.0000 </r>
       <r>   -20.6071     0.0000     4.0000 </r>
       <r>   -20.4657     0.0000     4.0000 </r>
       <r>   -20.3243     0.0000     4.0000 </r>
       <r>   -20.1829     0.0000     4.0000 </r>
       <r>   -20.0415     0.0000     4.0000 </r>
       <r>   -19.9002     0.0000     4.0000 </r>
       <r>   -19.7588     0.0000     4.0000 </r>
       <r>   -19.6174     0.0000     4.0000 </r>
       <r>   -19.4760     0.0000     4.0000 </r>
       <r>   -19.3347     0.0000     4.0000 </r>
       <r>   -19.1933     0.0000     4.0000 </r>
       <r>   -19.0519     0.0000     4.0000 </r>
       <r>   -18.9105     0.0000     4.0000 </r>
       <r>   -18.7691     0.0000     4.0000 </r>
       <r>   -18.6278     0.0000     4.0000 </r>
       <r>   -18.4864     0.0000     4.0000 </r>
       <r>   -18.3450     0.0000     4.0000 </r>
       <r>   -18.2036     0.0000     4.0000 </r>
       <r>   -18.0623     0.0000     4.0000 </r>
       <r>   -17.9209     0.0000     4.0000 </r>
       <r>   -17.7795     0.0000     4.0000 </r>
       <r>   -17.6381     0.0000     4.0000 </r>
       <r>   -17.4968     0.0000     4.0000 </r>
       <r>   -17.3554     0.0000     4.0000 </r>
       <r>   -17.2140     0.0000     4.0000 </r>
       <r>   -17.0726     0.0000     4.0000 </r>
       <r>   -16.9312     0.0000     4.0000 </r>
       <r>   -16.7899     0.0000     4.0000 </r>
       <r>   -16.6485     0.0000     4.0000 </r>
       <r>   -16.5071     0.0000     4.0000 </r>
       <r>   -16.3657     0.0000     4.0000 </r>
       <r>   -16.2244     0.0000     4.0000 </r>
       <r>   -16.0830     0.0000     4.0000 </r>
       <r>   -15.9416     0.0000     4.0000 </r>
       <r>   -15.8002     0.0000     4.0000 </r>
       <r>   -15.6588     0.0000     4.0000 </r>
       <r>   -15.5175     0.0000     4.0000 </r>
       <r>   -15.3761     0.0000     4.0000 </r>
       <r>   -15.2347     0.0000     4.0000 </r>
       <r>   -15.0933    -0.0000     4.0000 </r>
       <r>   -14.9520    -0.0000     4.0000 </r>
       <r>   -14.8106    -0.0000     4.0000 </r>
       <r>   -14.6692    -0.0000     4.0000 </r>
       <r>   -14.5278    -0.0000     4.0000 </r>
       <r>   -14.3864    -0.0000     4.0000 </r>
       <r>   -14.2451    -0.0000     4.0000 </r>
       <r>   -14.1037    -0.0002     4.0000 </r>
       <r>   -13.9623    -0.0100     3.9986 </r>
       <r>   -13.8209    -0.1704     3.9745 </r>
       <r>   -13.6796    -0.5645     3.8947 </r>
       <r>   -13.5382     2.7708     4.2864 </r>
       <r>   -13.3968    11.0735     5.8519 </r>
       <r>   -13.2554     8.1443     7.0034 </r>
       <r>   -13.1140     0.5109     7.0756 </r>
       <r>   -12.9727    -0.4678     7.0095 </r>
       <r>   -12.8313    -0.0645     7.0003 </r>
       <r>   -12.6899    -0.0023     7.0000 </r>
       <r>   -12.5485    -0.0000     7.0000 </r>
       <r>   -12.4072    -0.0000     7.0000 </r>
       <r>   -12.2658    -0.0000     7.0000 </r>
       <r>   -12.1244    -0.0000     7.0000 </r>
       <r>   -11.9830    -0.0000     7.0000 </r>
       <r>   -11.8416    -0.0000     7.0000 </r>
       <r>   -11.7003    -0.0002     7.0000 </r>
       <r>   -11.5589    -0.0075     6.9989 </r>
       <r>   -11.4175    -0.0948     6.9855 </r>
       <r>   -11.2761    -0.2029     6.9568 </r>
       <r>   -11.1348     1.1098     7.1137 </r>
       <r>   -10.9934     4.6022     7.7644 </r>
       <r>   -10.8520    10.4282     9.2387 </r>
       <r>   -10.7106    10.8118    10.7672 </r>
       <r>   -10.5692     2.3672    11.1019 </r>
       <r>   -10.4279    -0.9235    10.9713 </r>
       <r>   -10.2865    -1.1920    10.8028 </r>
       <r>   -10.1451     5.0965    11.5234 </r>
       <r>   -10.0037    23.1295    14.7933 </r>
       <r>    -9.8624    20.9834    17.7599 </r>
       <r>    -9.7210     2.4271    18.1031 </r>
       <r>    -9.5796     0.6420    18.1938 </r>
       <r>    -9.4382    10.0134    19.6095 </r>
       <r>    -9.2968     9.3255    20.9279 </r>
       <r>    -9.1555     1.1369    21.0886 </r>
       <r>    -9.0141    -0.5303    21.0137 </r>
       <r>    -8.8727    -0.0926    21.0006 </r>
       <r>    -8.7313    -0.0040    21.0000 </r>
       <r>    -8.5900    -0.0001    21.0000 </r>
       <r>    -8.4486    -0.0000    21.0000 </r>
       <r>    -8.3072    -0.0000    21.0000 </r>
       <r>    -8.1658    -0.0000    21.0000 </r>
       <r>    -8.0244    -0.0000    21.0000 </r>
       <r>    -7.8831    -0.0000    21.0000 </r>
       <r>    -7.7417    -0.0000    21.0000 </r>
       <r>    -7.6003    -0.0000    21.0000 </r>
       <r>    -7.4589    -0.0000    21.0000 </r>
       <r>    -7.3176    -0.0000    21.0000 </r>
       <r>    -7.1762    -0.0000    21.0000 </r>
       <r>    -7.0348    -0.0010    20.9999 </r>
       <r>    -6.8934    -0.0350    20.9949 </r>
       <r>    -6.7521    -0.3526    20.9451 </r>
       <r>    -6.6107    -0.1411    20.9251 </r>
       <r>    -6.4693     6.1426    21.7935 </r>
       <r>    -6.3279    11.7900    23.4604 </r>
       <r>    -6.1865     4.5300    24.1008 </r>
       <r>    -6.0452    -0.4300    24.0400 </r>
       <r>    -5.9038    -0.2621    24.0030 </r>
       <r>    -5.7624    -0.0204    24.0001 </r>
       <r>    -5.6210    -0.0005    24.0000 </r>
       <r>    -5.4797    -0.0000    24.0000 </r>
       <r>    -5.3383    -0.0000    24.0000 </r>
       <r>    -5.1969    -0.0000    24.0000 </r>
       <r>    -5.0555    -0.0000    24.0000 </r>
       <r>    -4.9141     0.0000    24.0000 </r>
       <r>    -4.7728     0.0000    24.0000 </r>
       <r>    -4.6314     0.0000    24.0000 </r>
       <r>    -4.4900     0.0000    24.0000 </r>
       <r>    -4.3486     0.0000    24.0000 </r>
       <r>    -4.2073     0.0000    24.0000 </r>
       <r>    -4.0659     0.0000    24.0000 </r>
       <r>    -3.9245     0.0000    24.0000 </r>
       <r>    -3.7831     0.0000    24.0000 </r>
       <r>    -3.6417     0.0000    24.0000 </r>
       <r>    -3.5004     0.0000    24.0000 </r>
       <r>    -3.3590     0.0000    24.0000 </r>
       <r>    -3.2176     0.0000    24.0000 </r>
       <r>    -3.0762     0.0000    24.0000 </r>
       <r>    -2.9349     0.0000    24.0000 </r>
       <r>    -2.7935     0.0000    24.0000 </r>
       <r>    -2.6521     0.0000    24.0000 </r>
       <r>    -2.5107     0.0000    24.0000 </r>
       <r>    -2.3693     0.0000    24.0000 </r>
       <r>    -2.2280     0.0000    24.0000 </r>
       <r>    -2.0866     0.0000    24.0000 </r>
       <r>    -1.9452     0.0000    24.0000 </r>
       <r>    -1.8038     0.0000    24.0000 </r>
       <r>    -1.6625     0.0000    24.0000 </r>
       <r>    -1.5211     0.0000    24.0000 </r>
       <r>    -1.3797     0.0000    24.0000 </r>
       <r>    -1.2383     0.0000    24.0000 </r>
       <r>    -1.0969     0.0000    24.0000 </r>
       <r>    -0.9556     0.0000    24.0000 </r>
       <r>    -0.8142     0.0000    24.0000 </r>
       <r>    -0.6728     0.0000    24.0000 </r>
       <r>    -0.5314     0.0000    24.0000 </r>
       <r>    -0.3901     0.0000    24.0000 </r>
       <r>    -0.2487    -0.0000    24.0000 </r>
       <r>    -0.1073    -0.0000    24.0000 </r>
       <r>     0.0341    -0.0000    24.0000 </r>
       <r>     0.1755    -0.0000    24.0000 </r>
       <r>     0.3168    -0.0000    24.0000 </r>
       <r>     0.4582    -0.0000    24.0000 </r>
       <r>     0.5996    -0.0000    24.0000 </r>
       <r>     0.7410    -0.0011    23.9998 </r>
       <r>     0.8823    -0.0409    23.9940 </r>
       <r>     1.0237    -0.4477    23.9308 </r>
       <r>     1.1651    -0.5970    23.8464 </r>
       <r>     1.3065     7.2723    24.8745 </r>
       <r>     1.4479    20.6923    27.7999 </r>
       <r>     1.5892    14.8751    29.9029 </r>
       <r>     1.7306     1.6734    30.1395 </r>
       <r>     1.8720    -0.8210    30.0234 </r>
       <r>     2.0134    -0.1579    30.0011 </r>
       <r>     2.1547    -0.0077    30.0000 </r>
       <r>     2.2961    -0.0001    30.0000 </r>
       <r>     2.4375    -0.0000    30.0000 </r>
       <r>     2.5789    -0.0000    30.0000 </r>
       <r>     2.7202    -0.0000    30.0000 </r>
       <r>     2.8616    -0.0000    30.0000 </r>
       <r>     3.0030    -0.0000    30.0000 </r>
       <r>     3.1444    -0.0000    30.0000 </r>
       <r>     3.2858    -0.0001    30.0000 </r>
       <r>     3.4271    -0.0049    29.9993 </r>
       <r>     3.5685    -0.1324    29.9806 </r>
       <r>     3.7099    -0.9454    29.8469 </r>
       <r>     3.8513     1.0958    30.0018 </r>
       <r>     3.9926    16.3761    32.3171 </r>
       <r>     4.1340    21.2374    35.3196 </r>
       <r>     4.2754     5.0506    36.0336 </r>
       <r>     4.4168    11.4416    37.6512 </r>
       <r>     4.5582    29.9979    41.8922 </r>
       <r>     4.6995    30.7685    46.2422 </r>
       <r>     4.8409    13.5081    48.1519 </r>
       <r>     4.9823    -0.1057    48.1370 </r>
       <r>     5.1237    -0.8659    48.0146 </r>
       <r>     5.2650    -0.0998    48.0005 </r>
       <r>     5.4064    -0.0032    48.0000 </r>
       <r>     5.5478    -0.0000    48.0000 </r>
       <r>     5.6892    -0.0000    48.0000 </r>
       <r>     5.8306    -0.0000    48.0000 </r>
       <r>     5.9719    -0.0000    48.0000 </r>
       <r>     6.1133    -0.0000    48.0000 </r>
       <r>     6.2547    -0.0000    48.0000 </r>
       <r>     6.3961    -0.0000    48.0000 </r>
       <r>     6.5374    -0.0000    48.0000 </r>
       <r>     6.6788    -0.0032    47.9995 </r>
       <r>     6.8202    -0.0944    47.9862 </r>
       <r>     6.9616    -0.8422    47.8671 </r>
       <r>     7.1030    -0.6047    47.7816 </r>
       <r>     7.2443    13.0406    49.6253 </r>
       <r>     7.3857    35.4871    54.6424 </r>
       <r>     7.5271    36.8123    59.8468 </r>
       <r>     7.6685    21.5936    62.8996 </r>
       <r>     7.8098    21.0295    65.8727 </r>
       <r>     7.9512    24.1604    69.2885 </r>
       <r>     8.0926    11.1225    70.8610 </r>
       <r>     8.2340     9.9707    72.2706 </r>
       <r>     8.3754     8.0864    73.4138 </r>
       <r>     8.5167    10.9260    74.9585 </r>
       <r>     8.6581     7.5231    76.0221 </r>
       <r>     8.7995     0.3556    76.0724 </r>
       <r>     8.9409    -0.4512    76.0086 </r>
       <r>     9.0822    -0.0588    76.0003 </r>
       <r>     9.2236    -0.0021    76.0000 </r>
       <r>     9.3650    -0.0000    76.0000 </r>
       <r>     9.5064    -0.0000    76.0000 </r>
       <r>     9.6478    -0.0000    76.0000 </r>
       <r>     9.7891    -0.0000    76.0000 </r>
       <r>     9.9305    -0.0000    76.0000 </r>
       <r>    10.0719    -0.0001    76.0000 </r>
       <r>    10.2133    -0.0063    75.9991 </r>
       <r>    10.3546    -0.1259    75.9813 </r>
       <r>    10.4960    -0.5655    75.9014 </r>
       <r>    10.6374     1.8515    76.1631 </r>
       <r>    10.7788    10.2266    77.6089 </r>
       <r>    10.9202     9.1072    78.8965 </r>
       <r>    11.0615     1.9116    79.1667 </r>
       <r>    11.2029     3.0692    79.6006 </r>
       <r>    11.3443     2.7770    79.9932 </r>
       <r>    11.4857     0.2380    80.0269 </r>
       <r>    11.6270    -0.1645    80.0036 </r>
       <r>    11.7684    -0.0247    80.0001 </r>
       <r>    11.9098    -0.0010    80.0000 </r>
       <r>    12.0512    -0.0000    80.0000 </r>
       <r>    12.1926    -0.0000    80.0000 </r>
       <r>    12.3339    -0.0000    80.0000 </r>
       <r>    12.4753    -0.0000    80.0000 </r>
       <r>    12.6167     0.0000    80.0000 </r>
       <r>    12.7581     0.0000    80.0000 </r>
       <r>    12.8994     0.0000    80.0000 </r>
       <r>    13.0408     0.0000    80.0000 </r>
       <r>    13.1822     0.0000    80.0000 </r>
      </set>
      <set comment="spin 2">
       <r>   -29.2311     0.0000     0.0000 </r>
       <r>   -29.0897     0.0000     0.0000 </r>
       <r>   -28.9483    -0.0000    -0.0000 </r>
       <r>   -28.8070    -0.0000    -0.0000 </r>
       <r>   -28.6656    -0.0000    -0.0000 </r>
       <r>   -28.5242    -0.0000    -0.0000 </r>
       <r>   -28.3828    -0.0000    -0.0000 </r>
       <r>   -28.2415    -0.0000    -0.0000 </r>
       <r>   -28.1001    -0.0000    -0.0000 </r>
       <r>   -27.9587    -0.0000    -0.0000 </r>
       <r>   -27.8173    -0.0010    -0.0001 </r>
       <r>   -27.6759    -0.0248    -0.0036 </r>
       <r>   -27.5346    -0.1709    -0.0278 </r>
       <r>   -27.3932     0.1130    -0.0118 </r>
       <r>   -27.2518     2.3016     0.3136 </r>
       <r>   -27.1104     5.5152     1.0933 </r>
       <r>   -26.9691    11.1438     2.6688 </r>
       <r>   -26.8277     9.0252     3.9447 </r>
       <r>   -26.6863     1.0113     4.0877 </r>
       <r>   -26.5449    -0.5274     4.0132 </r>
       <r>   -26.4035    -0.0893     4.0005 </r>
       <r>   -26.2622    -0.0038     4.0000 </r>
       <r>   -26.1208    -0.0001     4.0000 </r>
       <r>   -25.9794    -0.0000     4.0000 </r>
       <r>   -25.8380    -0.0000     4.0000 </r>
       <r>   -25.6967    -0.0000     4.0000 </r>
       <r>   -25.5553     0.0000     4.0000 </r>
       <r>   -25.4139     0.0000     4.0000 </r>
       <r>   -25.2725     0.0000     4.0000 </r>
       <r>   -25.1311     0.0000     4.0000 </r>
       <r>   -24.9898     0.0000     4.0000 </r>
       <r>   -24.8484     0.0000     4.0000 </r>
       <r>   -24.7070     0.0000     4.0000 </r>
       <r>   -24.5656     0.0000     4.0000 </r>
       <r>   -24.4243     0.0000     4.0000 </r>
       <r>   -24.2829     0.0000     4.0000 </r>
       <r>   -24.1415     0.0000     4.0000 </r>
       <r>   -24.0001     0.0000     4.0000 </r>
       <r>   -23.8587     0.0000     4.0000 </r>
       <r>   -23.7174     0.0000     4.0000 </r>
       <r>   -23.5760     0.0000     4.0000 </r>
       <r>   -23.4346     0.0000     4.0000 </r>
       <r>   -23.2932     0.0000     4.0000 </r>
       <r>   -23.1519     0.0000     4.0000 </r>
       <r>   -23.0105     0.0000     4.0000 </r>
       <r>   -22.8691     0.0000     4.0000 </r>
       <r>   -22.7277     0.0000     4.0000 </r>
       <r>   -22.5863     0.0000     4.0000 </r>
       <r>   -22.4450     0.0000     4.0000 </r>
       <r>   -22.3036     0.0000     4.0000 </r>
       <r>   -22.1622     0.0000     4.0000 </r>
       <r>   -22.0208     0.0000     4.0000 </r>
       <r>   -21.8795     0.0000     4.0000 </r>
       <r>   -21.7381     0.0000     4.0000 </r>
       <r>   -21.5967     0.0000     4.0000 </r>
       <r>   -21.4553     0.0000     4.0000 </r>
       <r>   -21.3139     0.0000     4.0000 </r>
       <r>   -21.1726     0.0000     4.0000 </r>
       <r>   -21.0312     0.0000     4.0000 </r>
       <r>   -20.8898     0.0000     4.0000 </r>
       <r>   -20.7484     0.0000     4.0000 </r>
       <r>   -20.6071     0.0000     4.0000 </r>
       <r>   -20.4657     0.0000     4.0000 </r>
       <r>   -20.3243     0.0000     4.0000 </r>
       <r>   -20.1829     0.0000     4.0000 </r>
       <r>   -20.0415     0.0000     4.0000 </r>
       <r>   -19.9002     0.0000     4.0000 </r>
       <r>   -19.7588     0.0000     4.0000 </r>
       <r>   -19.6174     0.0000     4.0000 </r>
       <r>   -19.4760     0.0000     4.0000 </r>
       <r>   -19.3347     0.0000     4.0000 </r>
       <r>   -19.1933     0.0000     4.0000 </r>
       <r>   -19.0519     0.0000     4.0000 </r>
       <r>   -18.9105     0.0000     4.0000 </r>
       <r>   -18.7691     0.0000     4.0000 </r>
       <r>   -18.6278     0.0000     4.0000 </r>
       <r>   -18.4864     0.0000     4.0000 </r>
       <r>   -18.3450     0.0000     4.0000 </r>
       <r>   -18.2036     0.0000     4.0000 </r>
       <r>   -18.0623     0.0000     4.0000 </r>
       <r>   -17.9209     0.0000     4.0000 </r>
       <r>   -17.7795     0.0000     4.0000 </r>
       <r>   -17.6381     0.0000     4.0000 </r>
       <r>   -17.4968     0.0000     4.0000 </r>
       <r>   -17.3554     0.0000     4.0000 </r>
       <r>   -17.2140     0.0000     4.0000 </r>
       <r>   -17.0726     0.0000     4.0000 </r>
       <r>   -16.9312     0.0000     4.0000 </r>
       <r>   -16.7899     0.0000     4.0000 </r>
       <r>   -16.6485     0.0000     4.0000 </r>
       <r>   -16.5071     0.0000     4.0000 </r>
       <r>   -16.3657     0.0000     4.0000 </r>
       <r>   -16.2244     0.0000     4.0000 </r>
       <r>   -16.0830     0.0000     4.0000 </r>
       <r>   -15.9416     0.0000     4.0000 </r>
       <r>   -15.8002     0.0000     4.0000 </r>
       <r>   -15.6588     0.0000     4.0000 </r>
       <r>   -15.5175     0.0000     4.0000 </r>
       <r>   -15.3761     0.0000     4.0000 </r>
       <r>   -15.2347     0.0000     4.0000 </r>
       <r>   -15.0933    -0.0000     4.0000 </r>
       <r>   -14.9520    -0.0000     4.0000 </r>
       <r>   -14.8106    -0.0000     4.0000 </r>
       <r>   -14.6692    -0.0000     4.0000 </r>
       <r>   -14.5278    -0.0000     4.0000 </r>
       <r>   -14.3864    -0.0000     4.0000 </r>
       <r>   -14.2451    -0.0000     4.0000 </r>
       <r>   -14.1037    -0.0003     4.0000 </r>
       <r>   -13.9623    -0.0146     3.9979 </r>
       <r>   -13.8209    -0.2148     3.9675 </r>
       <r>   -13.6796    -0.5198     3.8940 </r>
       <r>   -13.5382     3.6417     4.4089 </r>
       <r>   -13.3968    11.5381     6.0401 </r>
       <r>   -13.2554     7.1192     7.0466 </r>
       <r>   -13.1140     0.1283     7.0648 </r>
       <r>   -12.9727    -0.4091     7.0069 </r>
       <r>   -12.8313    -0.0474     7.0002 </r>
       <r>   -12.6899    -0.0015     7.0000 </r>
       <r>   -12.5485    -0.0000     7.0000 </r>
       <r>   -12.4072    -0.0000     7.0000 </r>
       <r>   -12.2658    -0.0000     7.0000 </r>
       <r>   -12.1244    -0.0000     7.0000 </r>
       <r>   -11.9830    -0.0000     7.0000 </r>
       <r>   -11.8416    -0.0000     7.0000 </r>
       <r>   -11.7003    -0.0004     6.9999 </r>
       <r>   -11.5589    -0.0131     6.9981 </r>
       <r>   -11.4175    -0.1296     6.9798 </r>
       <r>   -11.2761    -0.1349     6.9607 </r>
       <r>   -11.1348     1.6020     7.1872 </r>
       <r>   -10.9934     5.5533     7.9723 </r>
       <r>   -10.8520    11.4429     9.5901 </r>
       <r>   -10.7106     9.4128    10.9208 </r>
       <r>   -10.5692     1.1719    11.0865 </r>
       <r>   -10.4279    -0.9310    10.9549 </r>
       <r>   -10.2865    -0.8732    10.8314 </r>
       <r>   -10.1451     5.8684    11.6611 </r>
       <r>   -10.0037    22.9976    14.9124 </r>
       <r>    -9.8624    20.2707    17.7782 </r>
       <r>    -9.7210     2.2499    18.0963 </r>
       <r>    -9.5796     0.7342    18.2001 </r>
       <r>    -9.4382    10.0881    19.6264 </r>
       <r>    -9.2968     9.2486    20.9339 </r>
       <r>    -9.1555     1.0885    21.0878 </r>
       <r>    -9.0141    -0.5267    21.0133 </r>
       <r>    -8.8727    -0.0904    21.0005 </r>
       <r>    -8.7313    -0.0038    21.0000 </r>
       <r>    -8.5900    -0.0001    21.0000 </r>
       <r>    -8.4486    -0.0000    21.0000 </r>
       <r>    -8.3072    -0.0000    21.0000 </r>
       <r>    -8.1658    -0.0000    21.0000 </r>
       <r>    -8.0244    -0.0000    21.0000 </r>
       <r>    -7.8831    -0.0000    21.0000 </r>
       <r>    -7.7417    -0.0000    21.0000 </r>
       <r>    -7.6003    -0.0000    21.0000 </r>
       <r>    -7.4589    -0.0000    21.0000 </r>
       <r>    -7.3176    -0.0000    21.0000 </r>
       <r>    -7.1762    -0.0000    21.0000 </r>
       <r>    -7.0348    -0.0015    20.9998 </r>
       <r>    -6.8934    -0.0462    20.9933 </r>
       <r>    -6.7521    -0.4043    20.9361 </r>
       <r>    -6.6107     0.1020    20.9505 </r>
       <r>    -6.4693     7.0358    21.9452 </r>
       <r>    -6.3279    11.5667    23.5805 </r>
       <r>    -6.1865     3.7152    24.1058 </r>
       <r>    -6.0452    -0.5141    24.0331 </r>
       <r>    -5.9038    -0.2186    24.0022 </r>
       <r>    -5.7624    -0.0150    24.0000 </r>
       <r>    -5.6210    -0.0003    24.0000 </r>
       <r>    -5.4797    -0.0000    24.0000 </r>
       <r>    -5.3383    -0.0000    24.0000 </r>
       <r>    -5.1969    -0.0000    24.0000 </r>
       <r>    -5.0555     0.0000    24.0000 </r>
       <r>    -4.9141     0.0000    24.0000 </r>
       <r>    -4.7728     0.0000    24.0000 </r>
       <r>    -4.6314     0.0000    24.0000 </r>
       <r>    -4.4900     0.0000    24.0000 </r>
       <r>    -4.3486     0.0000    24.0000 </r>
       <r>    -4.2073     0.0000    24.0000 </r>
       <r>    -4.0659     0.0000    24.0000 </r>
       <r>    -3.9245     0.0000    24.0000 </r>
       <r>    -3.7831     0.0000    24.0000 </r>
       <r>    -3.6417     0.0000    24.0000 </r>
       <r>    -3.5004     0.0000    24.0000 </r>
       <r>    -3.3590     0.0000    24.0000 </r>
       <r>    -3.2176     0.0000    24.0000 </r>
       <r>    -3.0762     0.0000    24.0000 </r>
       <r>    -2.9349     0.0000    24.0000 </r>
       <r>    -2.7935     0.0000    24.0000 </r>
       <r>    -2.6521     0.0000    24.0000 </r>
       <r>    -2.5107     0.0000    24.0000 </r>
       <r>    -2.3693     0.0000    24.0000 </r>
       <r>    -2.2280     0.0000    24.0000 </r>
       <r>    -2.0866     0.0000    24.0000 </r>
       <r>    -1.9452     0.0000    24.0000 </r>
       <r>    -1.8038     0.0000    24.0000 </r>
       <r>    -1.6625     0.0000    24.0000 </r>
       <r>    -1.5211     0.0000    24.0000 </r>
       <r>    -1.3797     0.0000    24.0000 </r>
       <r>    -1.2383     0.0000    24.0000 </r>
       <r>    -1.0969     0.0000    24.0000 </r>
       <r>    -0.9556     0.0000    24.0000 </r>
       <r>    -0.8142     0.0000    24.0000 </r>
       <r>    -0.6728     0.0000    24.0000 </r>
       <r>    -0.5314     0.0000    24.0000 </r>
       <r>    -0.3901    -0.0000    24.0000 </r>
       <r>    -0.2487    -0.0000    24.0000 </r>
       <r>    -0.1073    -0.0000    24.0000 </r>
       <r>     0.0341    -0.0000    24.0000 </r>
       <r>     0.1755    -0.0000    24.0000 </r>
       <r>     0.3168    -0.0000    24.0000 </r>
       <r>     0.4582    -0.0000    24.0000 </r>
       <r>     0.5996    -0.0000    24.0000 </r>
       <r>     0.7410    -0.0018    23.9997 </r>
       <r>     0.8823    -0.0582    23.9915 </r>
       <r>     1.0237    -0.5438    23.9146 </r>
       <r>     1.1651    -0.3087    23.8710 </r>
       <r>     1.3065     9.0784    25.1545 </r>
       <r>     1.4479    21.3862    28.1780 </r>
       <r>     1.5892    12.9583    30.0100 </r>
       <r>     1.7306     0.7903    30.1218 </r>
       <r>     1.8720    -0.7420    30.0169 </r>
       <r>     2.0134    -0.1143    30.0007 </r>
       <r>     2.1547    -0.0048    30.0000 </r>
       <r>     2.2961    -0.0001    30.0000 </r>
       <r>     2.4375    -0.0000    30.0000 </r>
       <r>     2.5789    -0.0000    30.0000 </r>
       <r>     2.7202    -0.0000    30.0000 </r>
       <r>     2.8616    -0.0000    30.0000 </r>
       <r>     3.0030    -0.0000    30.0000 </r>
       <r>     3.1444    -0.0000    30.0000 </r>
       <r>     3.2858    -0.0001    30.0000 </r>
       <r>     3.4271    -0.0084    29.9988 </r>
       <r>     3.5685    -0.1932    29.9715 </r>
       <r>     3.7099    -1.0730    29.8198 </r>
       <r>     3.8513     2.4430    30.1652 </r>
       <r>     3.9926    18.7983    32.8228 </r>
       <r>     4.1340    19.2408    35.5430 </r>
       <r>     4.2754     4.1715    36.1328 </r>
       <r>     4.4168    15.0102    38.2549 </r>
       <r>     4.5582    31.3548    42.6878 </r>
       <r>     4.6995    28.7067    46.7462 </r>
       <r>     4.8409    10.3759    48.2132 </r>
       <r>     4.9823    -0.7645    48.1051 </r>
       <r>     5.1237    -0.6791    48.0091 </r>
       <r>     5.2650    -0.0624    48.0002 </r>
       <r>     5.4064    -0.0017    48.0000 </r>
       <r>     5.5478    -0.0000    48.0000 </r>
       <r>     5.6892    -0.0000    48.0000 </r>
       <r>     5.8306    -0.0000    48.0000 </r>
       <r>     5.9719    -0.0000    48.0000 </r>
       <r>     6.1133    -0.0000    48.0000 </r>
       <r>     6.2547    -0.0000    48.0000 </r>
       <r>     6.3961    -0.0000    48.0000 </r>
       <r>     6.5374    -0.0000    48.0000 </r>
       <r>     6.6788    -0.0034    47.9995 </r>
       <r>     6.8202    -0.0977    47.9857 </r>
       <r>     6.9616    -0.8646    47.8635 </r>
       <r>     7.1030    -0.5685    47.7831 </r>
       <r>     7.2443    13.4604    49.6861 </r>
       <r>     7.3857    35.8750    54.7580 </r>
       <r>     7.5271    36.5420    59.9242 </r>
       <r>     7.6685    21.4252    62.9533 </r>
       <r>     7.8098    21.4619    65.9875 </r>
       <r>     7.9512    23.9024    69.3668 </r>
       <r>     8.0926    11.1964    70.9497 </r>
       <r>     8.2340     9.9833    72.3611 </r>
       <r>     8.3754     8.2024    73.5208 </r>
       <r>     8.5167    11.1617    75.0988 </r>
       <r>     8.6581     6.7495    76.0530 </r>
       <r>     8.7995     0.0772    76.0639 </r>
       <r>     8.9409    -0.4044    76.0067 </r>
       <r>     9.0822    -0.0461    76.0002 </r>
       <r>     9.2236    -0.0015    76.0000 </r>
       <r>     9.3650    -0.0000    76.0000 </r>
       <r>     9.5064    -0.0000    76.0000 </r>
       <r>     9.6478    -0.0000    76.0000 </r>
       <r>     9.7891    -0.0000    76.0000 </r>
       <r>     9.9305    -0.0000    76.0000 </r>
       <r>    10.0719    -0.0001    76.0000 </r>
       <r>    10.2133    -0.0079    75.9989 </r>
       <r>    10.3546    -0.1457    75.9783 </r>
       <r>    10.4960    -0.5711    75.8975 </r>
       <r>    10.6374     2.2658    76.2179 </r>
       <r>    10.7788    10.6324    77.7211 </r>
       <r>    10.9202     8.5767    78.9336 </r>
       <r>    11.0615     1.6141    79.1618 </r>
       <r>    11.2029     3.1014    79.6003 </r>
       <r>    11.3443     2.7822    79.9936 </r>
       <r>    11.4857     0.2346    80.0268 </r>
       <r>    11.6270    -0.1640    80.0036 </r>
       <r>    11.7684    -0.0245    80.0001 </r>
       <r>    11.9098    -0.0009    80.0000 </r>
       <r>    12.0512    -0.0000    80.0000 </r>
       <r>    12.1926    -0.0000    80.0000 </r>
       <r>    12.3339    -0.0000    80.0000 </r>
       <r>    12.4753    -0.0000    80.0000 </r>
       <r>    12.6167     0.0000    80.0000 </r>
       <r>    12.7581     0.0000    80.0000 </r>
       <r>    12.8994     0.0000    80.0000 </r>
       <r>    13.0408     0.0000    80.0000 </r>
       <r>    13.1822     0.0000    80.0000 </r>
      </set>
     </set>
    </array>
   </total>
  </dos>
 </calculation>
 <structure name="finalpos" >
  <crystal>
   <varray name="basis" >
    <v>       5.46000004       0.00000000       0.00000000 </v>
    <v>       0.00000000       5.46000004       0.00000000 </v>
    <v>       0.00000000       0.00000000       5.46000004 </v>
   </varray>
   <i name="volume">    162.77133941 </i>
   <varray name="rec_basis" >
    <v>       0.18315018       0.00000000       0.00000000 </v>
    <v>       0.00000000       0.18315018       0.00000000 </v>
    <v>       0.00000000       0.00000000       0.18315018 </v>
   </varray>
  </crystal>
  <varray name="positions" >
   <v>       0.00000000       0.00000000       0.00000000 </v>
   <v>       0.00000000       0.50000000       0.50000000 </v>
   <v>       0.50000000       0.00000000       0.50000000 </v>
   <v>       0.50000000       0.50000000       0.00000000 </v>
   <v>       0.25000000       0.25000000       0.25000000 </v>
   <v>       0.75000004       0.75000004       0.75000004 </v>
   <v>       0.75000004       0.75000004       0.25000000 </v>
   <v>       0.25000000       0.25000000       0.75000004 </v>
   <v>       0.75000004       0.25000000       0.75000004 </v>
   <v>       0.25000000       0.75000004       0.25000000 </v>
   <v>       0.25000000       0.75000004       0.75000004 </v>
   <v>       0.75000004       0.25000000       0.25000000 </v>
  </varray>
 </structure>
</modeling>
