unknown system                          
           1
     5.460000    0.000000    0.000000
     0.000000    5.460000    0.000000
     0.000000    0.000000    5.460000
   Ce   O 
   4   8
Direct configuration=     1
   0.00000000  0.00000000  0.00000000
   0.00000000  0.50000000  0.50000000
   0.50000000  0.00000000  0.50000000
   0.50000000  0.50000000  0.00000000
   0.25000000  0.25000000  0.25000000
   0.75000004  0.75000004  0.75000004
   0.75000004  0.75000004  0.25000000
   0.25000000  0.25000000  0.75000004
   0.75000004  0.25000000  0.75000004
   0.25000000  0.75000004  0.25000000
   0.25000000  0.75000004  0.75000004
   0.75000004  0.25000000  0.25000000
