  12  12   0   0
  0.1791015E+02  0.5990000E-09  0.5990000E-09  0.5990000E-09  0.5000000E-15
  1.000000000000000E-004
  CAR 
 unknown system                          
     19.95603161     -4.79496636  301      8.99558816      1.00000000
     -4.795  0.0000E+00  0.0000E+00  0.0000E+00  0.0000E+00
     -4.712  0.0000E+00  0.0000E+00  0.0000E+00  0.0000E+00
     -4.630  0.0000E+00  0.0000E+00  0.0000E+00  0.0000E+00
     -4.547  0.0000E+00  0.0000E+00  0.0000E+00  0.0000E+00
     -4.465 -0.1500E-28  0.0000E+00 -0.1237E-29  0.0000E+00
     -4.382 -0.1179E-25  0.0000E+00 -0.9736E-27  0.0000E+00
     -4.300 -0.6578E-23 -0.6461E-28 -0.5437E-24 -0.5330E-29
     -4.217 -0.2604E-20 -0.4717E-25 -0.2154E-21 -0.3897E-26
     -4.135 -0.7307E-18 -0.2445E-22 -0.6050E-19 -0.2021E-23
     -4.052 -0.1453E-15 -0.8991E-20 -0.1205E-16 -0.7438E-21
     -3.970 -0.1978E-13 -0.2343E-17 -0.1644E-14 -0.1941E-18
     -3.887 -0.1969E-11 -0.4327E-15 -0.1641E-12 -0.3589E-16
     -3.805 -0.1378E-09 -0.5520E-13 -0.1153E-10 -0.4590E-14
     -3.722 -0.6790E-08 -0.5049E-11 -0.5717E-09 -0.4212E-12
     -3.640 -0.2351E-06 -0.3277E-09 -0.1996E-07 -0.2746E-10
     -3.557 -0.5693E-05 -0.1497E-07 -0.4897E-06 -0.1263E-08
     -3.475 -0.9592E-04 -0.4803E-06 -0.8404E-05 -0.4089E-07
     -3.392 -0.1114E-02 -0.1077E-04 -0.1003E-03 -0.9292E-06
     -3.310 -0.8772E-02 -0.1676E-03 -0.8240E-03 -0.1476E-04
     -3.227 -0.4544E-01 -0.1794E-02 -0.4573E-02 -0.1628E-03
     -3.145 -0.1438E+00 -0.1296E-01 -0.1644E-01 -0.1232E-02
     -3.062 -0.2104E+00 -0.6091E-01 -0.3379E-01 -0.6257E-02
     -2.980  0.2225E+00 -0.1699E+00 -0.1543E-01 -0.2027E-01
     -2.897  0.1682E+01 -0.1830E+00  0.1233E+00 -0.3537E-01
     -2.815  0.3550E+01  0.4444E+00  0.4162E+00  0.1292E-02
     -2.732  0.4058E+01  0.2102E+01  0.7510E+00  0.1747E+00
     -2.650  0.2636E+01  0.3829E+01  0.9684E+00  0.4907E+00
     -2.567  0.7965E+00  0.3886E+01  0.1034E+01  0.8113E+00
     -2.485 -0.1066E+00  0.2209E+01  0.1025E+01  0.9935E+00
     -2.402 -0.1983E+00  0.5080E+00  0.1009E+01  0.1035E+01
     -2.320 -0.8497E-01 -0.1719E+00  0.1002E+01  0.1021E+01
     -2.237 -0.2051E-01 -0.1761E+00  0.1000E+01  0.1007E+01
     -2.155 -0.3172E-02 -0.6529E-01  0.1000E+01  0.1001E+01
     -2.072 -0.3286E-03 -0.1424E-01  0.1000E+01  0.1000E+01
     -1.990 -0.2331E-04 -0.2014E-02  0.1000E+01  0.1000E+01
     -1.907 -0.1146E-05 -0.1921E-03  0.1000E+01  0.1000E+01
     -1.825 -0.3930E-07 -0.1259E-04  0.1000E+01  0.1000E+01
     -1.742 -0.9455E-09 -0.5724E-06  0.1000E+01  0.1000E+01
     -1.660 -0.1600E-10 -0.1819E-07  0.1000E+01  0.1000E+01
     -1.577 -0.1911E-12 -0.4057E-09  0.1000E+01  0.1000E+01
     -1.495 -0.2691E-14 -0.6370E-11  0.1000E+01  0.1000E+01
     -1.412  0.0000E+00 -0.6997E-13  0.1000E+01  0.1000E+01
     -1.330 -0.9779E-26  0.0000E+00  0.1000E+01  0.1000E+01
     -1.247 -0.5833E-23  0.0000E+00  0.1000E+01  0.1000E+01
     -1.165 -0.2471E-20 -0.1132E-25  0.1000E+01  0.1000E+01
     -1.082 -0.7420E-18 -0.6702E-23  0.1000E+01  0.1000E+01
     -1.000 -0.1579E-15 -0.2817E-20  0.1000E+01  0.1000E+01
     -0.917 -0.2379E-13 -0.8396E-18  0.1000E+01  0.1000E+01
     -0.835 -0.2454E-11 -0.1773E-15  0.1000E+01  0.1000E+01
     -0.752 -0.1840E-09 -0.2651E-13  0.1000E+01  0.1000E+01
     -0.670 -0.9719E-08 -0.2714E-11  0.1000E+01  0.1000E+01
     -0.587 -0.3608E-06 -0.2019E-09  0.1000E+01  0.1000E+01
     -0.505 -0.9379E-05 -0.1058E-07  0.1000E+01  0.1000E+01
     -0.422 -0.1698E-03 -0.3895E-06  0.1000E+01  0.1000E+01
     -0.340 -0.2124E-02 -0.1005E-04  0.9998E+00  0.1000E+01
     -0.257 -0.1809E-01 -0.1805E-03  0.9983E+00  0.1000E+01
     -0.175 -0.1022E+00 -0.2239E-02  0.9899E+00  0.9998E+00
     -0.092 -0.3603E+00 -0.1891E-01  0.9602E+00  0.9982E+00
     -0.010 -0.6511E+00 -0.1059E+00  0.9064E+00  0.9895E+00
      0.073  0.1672E+00 -0.3713E+00  0.9202E+00  0.9589E+00
      0.155  0.3812E+01 -0.6745E+00  0.1235E+01  0.9032E+00
      0.238  0.9259E+01  0.1046E+00  0.1999E+01  0.9118E+00
      0.320  0.1176E+02  0.3639E+01  0.2969E+01  0.1212E+01
      0.403  0.9745E+01  0.9183E+01  0.3773E+01  0.1970E+01
      0.485  0.8383E+01  0.1305E+02  0.4464E+01  0.3047E+01
      0.568  0.1035E+02  0.1396E+02  0.5318E+01  0.4198E+01
      0.650  0.1085E+02  0.1374E+02  0.6214E+01  0.5332E+01
      0.733  0.7612E+01  0.1166E+02  0.6842E+01  0.6293E+01
      0.815  0.6041E+01  0.6616E+01  0.7340E+01  0.6839E+01
      0.898  0.9215E+01  0.2738E+01  0.8100E+01  0.7065E+01
      0.980  0.1179E+02  0.4662E+01  0.9074E+01  0.7450E+01
      1.063  0.8860E+01  0.1006E+02  0.9805E+01  0.8280E+01
      1.145  0.3117E+01  0.1191E+02  0.1006E+02  0.9262E+01
      1.228 -0.7045E+00  0.7799E+01  0.1000E+02  0.9906E+01
      1.310 -0.1499E+01  0.2226E+01  0.9880E+01  0.1009E+02
      1.393  0.6843E+00 -0.8759E+00  0.9936E+01  0.1002E+02
      1.475  0.6715E+01 -0.1933E+01  0.1049E+02  0.9858E+01
      1.558  0.1617E+02 -0.1451E+01  0.1182E+02  0.9738E+01
      1.640  0.2580E+02  0.3637E+01  0.1395E+02  0.1004E+02
      1.723  0.3030E+02  0.1643E+02  0.1645E+02  0.1139E+02
      1.805  0.2631E+02  0.3209E+02  0.1862E+02  0.1404E+02
      1.888  0.1695E+02  0.3843E+02  0.2002E+02  0.1721E+02
      1.970  0.8815E+01  0.2977E+02  0.2075E+02  0.1967E+02
      2.053  0.6246E+01  0.1526E+02  0.2126E+02  0.2093E+02
      2.135  0.8971E+01  0.7805E+01  0.2200E+02  0.2157E+02
      2.218  0.1151E+02  0.9145E+01  0.2295E+02  0.2232E+02
      2.300  0.8827E+01  0.1068E+02  0.2368E+02  0.2321E+02
      2.383  0.3509E+01  0.7130E+01  0.2397E+02  0.2379E+02
      2.465  0.2210E+01  0.2912E+01  0.2415E+02  0.2403E+02
      2.548  0.6711E+01  0.4109E+01  0.2471E+02  0.2437E+02
      2.630  0.1162E+02  0.9474E+01  0.2567E+02  0.2516E+02
      2.713  0.1093E+02  0.1206E+02  0.2657E+02  0.2615E+02
      2.795  0.5559E+01  0.8534E+01  0.2703E+02  0.2685E+02
      2.878  0.9299E+00  0.2928E+01  0.2710E+02  0.2710E+02
      2.960 -0.6056E+00 -0.1626E+00  0.2705E+02  0.2708E+02
      3.043 -0.4652E+00 -0.6234E+00  0.2702E+02  0.2703E+02
      3.125 -0.1549E+00 -0.2921E+00  0.2700E+02  0.2701E+02
      3.208 -0.3116E-01 -0.7480E-01  0.2700E+02  0.2700E+02
      3.290 -0.4104E-02 -0.1216E-01  0.2700E+02  0.2700E+02
      3.373 -0.3660E-03 -0.1320E-02  0.2700E+02  0.2700E+02
      3.455 -0.2246E-04 -0.9790E-04  0.2700E+02  0.2700E+02
      3.538 -0.9586E-06 -0.5026E-05  0.2700E+02  0.2700E+02
      3.620 -0.2861E-07 -0.1800E-06  0.2700E+02  0.2700E+02
      3.703 -0.5995E-09 -0.4516E-08  0.2700E+02  0.2700E+02
      3.785 -0.8849E-11 -0.7971E-10  0.2700E+02  0.2700E+02
      3.868 -0.9689E-13 -0.9931E-12  0.2700E+02  0.2700E+02
      3.950  0.0000E+00 -0.8074E-14  0.2700E+02  0.2700E+02
      4.033 -0.9801E-27  0.0000E+00  0.2700E+02  0.2700E+02
      4.115 -0.6825E-24  0.0000E+00  0.2700E+02  0.2700E+02
      4.198 -0.3375E-21 -0.1440E-26  0.2700E+02  0.2700E+02
      4.280 -0.1184E-18 -0.9832E-24  0.2700E+02  0.2700E+02
      4.363 -0.2942E-16 -0.4767E-21  0.2700E+02  0.2700E+02
      4.445 -0.5180E-14 -0.1639E-18  0.2700E+02  0.2700E+02
      4.528 -0.6254E-12 -0.3995E-16  0.2700E+02  0.2700E+02
      4.610 -0.5491E-10 -0.6895E-14  0.2700E+02  0.2700E+02
      4.693 -0.3397E-08 -0.8183E-12  0.2700E+02  0.2700E+02
      4.775 -0.1479E-06 -0.7023E-10  0.2700E+02  0.2700E+02
      4.858 -0.4516E-05 -0.4257E-08  0.2700E+02  0.2700E+02
      4.940 -0.9632E-04 -0.1816E-06  0.2700E+02  0.2700E+02
      5.023 -0.1425E-02 -0.5435E-05  0.2700E+02  0.2700E+02
      5.105 -0.1447E-01 -0.1135E-03  0.2700E+02  0.2700E+02
      5.188 -0.9878E-01 -0.1645E-02  0.2699E+02  0.2700E+02
      5.270 -0.4356E+00 -0.1633E-01  0.2695E+02  0.2700E+02
      5.353 -0.1112E+01 -0.1089E+00  0.2686E+02  0.2699E+02
      5.435 -0.9031E+00 -0.4673E+00  0.2679E+02  0.2695E+02
      5.518  0.3688E+01 -0.1148E+01  0.2709E+02  0.2686E+02
      5.600  0.1426E+02 -0.7975E+00  0.2827E+02  0.2679E+02
      5.683  0.2379E+02  0.4153E+01  0.3023E+02  0.2713E+02
      5.765  0.2237E+02  0.1495E+02  0.3208E+02  0.2837E+02
      5.848  0.1161E+02  0.2406E+02  0.3304E+02  0.3035E+02
      5.930  0.2107E+01  0.2192E+02  0.3321E+02  0.3216E+02
      6.013 -0.1181E+01  0.1094E+02  0.3311E+02  0.3306E+02
      6.095 -0.9588E+00  0.1754E+01  0.3303E+02  0.3321E+02
      6.178 -0.3267E+00 -0.1223E+01  0.3301E+02  0.3311E+02
      6.260 -0.6688E-01 -0.9169E+00  0.3300E+02  0.3303E+02
      6.343 -0.8950E-02 -0.3021E+00  0.3300E+02  0.3301E+02
      6.425 -0.8100E-03 -0.6026E-01  0.3300E+02  0.3300E+02
      6.508 -0.5044E-04 -0.7879E-02  0.3300E+02  0.3300E+02
      6.590 -0.2183E-05 -0.6977E-03  0.3300E+02  0.3300E+02
      6.673 -0.6605E-07 -0.4254E-04  0.3300E+02  0.3300E+02
      6.755 -0.1403E-08 -0.1803E-05  0.3300E+02  0.3300E+02
      6.838 -0.2099E-10 -0.5346E-07  0.3300E+02  0.3300E+02
      6.921 -0.2261E-12 -0.1113E-08  0.3300E+02  0.3300E+02
      7.003  0.0000E+00 -0.1633E-10  0.3300E+02  0.3300E+02
      7.086  0.0000E+00 -0.1776E-12  0.3300E+02  0.3300E+02
      7.168  0.0000E+00  0.0000E+00  0.3300E+02  0.3300E+02
      7.251  0.0000E+00  0.0000E+00  0.3300E+02  0.3300E+02
      7.333 -0.4560E-26  0.0000E+00  0.3300E+02  0.3300E+02
      7.416 -0.2830E-23  0.0000E+00  0.3300E+02  0.3300E+02
      7.498 -0.1247E-20  0.0000E+00  0.3300E+02  0.3300E+02
      7.581 -0.3899E-18 -0.3817E-28  0.3300E+02  0.3300E+02
      7.663 -0.8635E-16 -0.3025E-25  0.3300E+02  0.3300E+02
      7.746 -0.1354E-13 -0.1702E-22  0.3300E+02  0.3300E+02
      7.828 -0.1455E-11 -0.6794E-20  0.3300E+02  0.3300E+02
      7.911 -0.1136E-09 -0.1922E-17  0.3300E+02  0.3300E+02
      7.993 -0.6249E-08 -0.3854E-15  0.3300E+02  0.3300E+02
      8.076 -0.2417E-06 -0.5269E-13  0.3300E+02  0.3300E+02
      8.158 -0.6549E-05 -0.5314E-11  0.3300E+02  0.3300E+02
      8.241 -0.1237E-03 -0.3748E-09  0.3300E+02  0.3300E+02
      8.323 -0.1616E-02 -0.1863E-07  0.3300E+02  0.3300E+02
      8.406 -0.1441E-01 -0.6503E-06  0.3300E+02  0.3300E+02
      8.488 -0.8549E-01 -0.1589E-04  0.3299E+02  0.3300E+02
      8.571 -0.3199E+00 -0.2701E-03  0.3297E+02  0.3300E+02
      8.653 -0.6376E+00 -0.3165E-02  0.3291E+02  0.3300E+02
      8.736 -0.2591E-01 -0.2516E-01  0.3291E+02  0.3300E+02
      8.818  0.3352E+01 -0.1317E+00  0.3319E+02  0.3299E+02
      8.901  0.9077E+01 -0.4226E+00  0.3394E+02  0.3295E+02
      8.983  0.1239E+02 -0.6358E+00  0.3496E+02  0.3290E+02
      9.066  0.9660E+01  0.6031E+00  0.3576E+02  0.3295E+02
      9.148  0.3914E+01  0.4908E+01  0.3608E+02  0.3335E+02
      9.231  0.1794E+00  0.1054E+02  0.3609E+02  0.3422E+02
      9.313 -0.6501E+00  0.1221E+02  0.3604E+02  0.3523E+02
      9.396 -0.3800E+00  0.8048E+01  0.3601E+02  0.3590E+02
      9.478 -0.2229E+00  0.2491E+01  0.3599E+02  0.3610E+02
      9.561 -0.4262E+00 -0.3247E+00  0.3595E+02  0.3607E+02
      9.643 -0.6862E+00 -0.7648E+00  0.3590E+02  0.3601E+02
      9.726  0.3181E+00 -0.7419E+00  0.3592E+02  0.3595E+02
      9.808  0.4358E+01 -0.6552E+00  0.3628E+02  0.3590E+02
      9.891  0.1041E+02  0.1038E+01  0.3714E+02  0.3598E+02
      9.973  0.1382E+02  0.5768E+01  0.3828E+02  0.3646E+02
     10.056  0.1181E+02  0.1105E+02  0.3926E+02  0.3737E+02
     10.138  0.6866E+01  0.1168E+02  0.3982E+02  0.3833E+02
     10.221  0.2576E+01  0.7292E+01  0.4004E+02  0.3893E+02
     10.303  0.2297E+00  0.3374E+01  0.4005E+02  0.3921E+02
     10.386 -0.6592E+00  0.2829E+01  0.4000E+02  0.3945E+02
     10.468 -0.9084E+00  0.3027E+01  0.3993E+02  0.3970E+02
     10.551 -0.1878E+00  0.1976E+01  0.3991E+02  0.3986E+02
     10.633  0.3159E+01  0.2125E+01  0.4017E+02  0.4003E+02
     10.716  0.8884E+01  0.6142E+01  0.4090E+02  0.4054E+02
     10.798  0.1237E+02  0.1124E+02  0.4192E+02  0.4147E+02
     10.881  0.9835E+01  0.1161E+02  0.4274E+02  0.4243E+02
     10.963  0.4095E+01  0.6679E+01  0.4307E+02  0.4298E+02
     11.046  0.2455E+00  0.1567E+01  0.4309E+02  0.4311E+02
     11.128 -0.6890E+00 -0.5076E+00  0.4304E+02  0.4306E+02
     11.211 -0.5596E+00 -0.5327E+00  0.4299E+02  0.4302E+02
     11.293 -0.6267E+00 -0.2008E+00  0.4294E+02  0.4300E+02
     11.376 -0.5498E+00 -0.5956E-01  0.4289E+02  0.4300E+02
     11.458  0.1439E+01 -0.9864E-01  0.4301E+02  0.4299E+02
     11.541  0.6489E+01 -0.3377E+00  0.4355E+02  0.4296E+02
     11.623  0.1159E+02 -0.6435E+00  0.4450E+02  0.4291E+02
     11.706  0.1156E+02  0.6478E-01  0.4546E+02  0.4292E+02
     11.788  0.6444E+01  0.3609E+01  0.4599E+02  0.4321E+02
     11.871  0.1414E+01  0.9351E+01  0.4611E+02  0.4398E+02
     11.953 -0.5355E+00  0.1240E+02  0.4606E+02  0.4501E+02
     12.036 -0.5177E+00  0.9394E+01  0.4602E+02  0.4578E+02
     12.118 -0.1883E+00  0.3650E+01  0.4600E+02  0.4608E+02
     12.201 -0.4047E-01  0.7999E-01  0.4600E+02  0.4609E+02
     12.283 -0.5656E-02 -0.6442E+00  0.4600E+02  0.4604E+02
     12.366 -0.5332E-03 -0.3399E+00  0.4600E+02  0.4601E+02
     12.448 -0.3454E-04 -0.9359E-01  0.4600E+02  0.4600E+02
     12.531 -0.1554E-05 -0.1617E-01  0.4600E+02  0.4600E+02
     12.613 -0.6108E-07 -0.1856E-02  0.4600E+02  0.4600E+02
     12.696 -0.4458E-06 -0.1452E-03  0.4600E+02  0.4600E+02
     12.778 -0.1131E-04 -0.7852E-05  0.4600E+02  0.4600E+02
     12.861 -0.2003E-03 -0.3067E-06  0.4600E+02  0.4600E+02
     12.943 -0.2448E-02 -0.4064E-06  0.4600E+02  0.4600E+02
     13.026 -0.2036E-01 -0.1025E-04  0.4600E+02  0.4600E+02
     13.108 -0.1119E+00 -0.1837E-03  0.4599E+02  0.4600E+02
     13.191 -0.3818E+00 -0.2273E-02  0.4596E+02  0.4600E+02
     13.273 -0.6474E+00 -0.1914E-01  0.4590E+02  0.4600E+02
     13.356  0.3276E+00 -0.1067E+00  0.4593E+02  0.4599E+02
     13.438  0.4283E+01 -0.3703E+00  0.4628E+02  0.4596E+02
     13.521  0.1001E+02 -0.6480E+00  0.4711E+02  0.4591E+02
     13.603  0.1235E+02  0.2563E+00  0.4813E+02  0.4593E+02
     13.686  0.8694E+01  0.4109E+01  0.4885E+02  0.4627E+02
     13.768  0.3016E+01  0.9847E+01  0.4910E+02  0.4708E+02
     13.851 -0.1373E+00  0.1237E+02  0.4908E+02  0.4810E+02
     13.933 -0.6289E+00  0.8875E+01  0.4903E+02  0.4883E+02
     14.016 -0.3139E+00  0.3171E+01  0.4901E+02  0.4909E+02
     14.098 -0.1498E+00 -0.9735E-01  0.4899E+02  0.4908E+02
     14.181 -0.1985E+00 -0.6851E+00  0.4898E+02  0.4903E+02
     14.263 -0.1506E+00 -0.4652E+00  0.4896E+02  0.4899E+02
     14.346  0.6207E+00 -0.2803E+00  0.4902E+02  0.4897E+02
     14.428  0.2386E+01  0.3167E+00  0.4921E+02  0.4899E+02
     14.511  0.3969E+01  0.1895E+01  0.4954E+02  0.4915E+02
     14.593  0.3723E+01  0.3703E+01  0.4985E+02  0.4945E+02
     14.676  0.1927E+01  0.3982E+01  0.5001E+02  0.4978E+02
     14.758  0.3459E+00  0.2417E+01  0.5003E+02  0.4998E+02
     14.841 -0.2015E+00  0.6414E+00  0.5002E+02  0.5004E+02
     14.923 -0.1901E+00 -0.1447E+00  0.5000E+02  0.5002E+02
     15.006 -0.2080E+00 -0.1881E+00  0.4999E+02  0.5001E+02
     15.088 -0.4745E+00 -0.8074E-01  0.4995E+02  0.5000E+02
     15.171 -0.6086E+00 -0.6134E-01  0.4990E+02  0.5000E+02
     15.253  0.9175E+00 -0.2037E+00  0.4997E+02  0.4998E+02
     15.336  0.5549E+01 -0.5357E+00  0.5043E+02  0.4993E+02
     15.418  0.1101E+02 -0.5012E+00  0.5134E+02  0.4989E+02
     15.501  0.1198E+02  0.1602E+01  0.5233E+02  0.5003E+02
     15.583  0.7277E+01  0.6752E+01  0.5293E+02  0.5058E+02
     15.666  0.1691E+01  0.1172E+02  0.5307E+02  0.5155E+02
     15.748 -0.7936E+00  0.1138E+02  0.5300E+02  0.5249E+02
     15.831  0.2189E+00  0.6012E+01  0.5302E+02  0.5298E+02
     15.913  0.3799E+01  0.8650E+00  0.5333E+02  0.5306E+02
     15.996  0.7503E+01 -0.7771E+00  0.5395E+02  0.5299E+02
     16.078  0.7851E+01  0.1079E+01  0.5460E+02  0.5308E+02
     16.161  0.4593E+01  0.5078E+01  0.5498E+02  0.5350E+02
     16.243  0.1126E+01  0.8074E+01  0.5507E+02  0.5417E+02
     16.326 -0.3226E+00  0.7106E+01  0.5504E+02  0.5475E+02
     16.408 -0.3621E+00  0.3379E+01  0.5501E+02  0.5503E+02
     16.491 -0.1381E+00  0.4525E+00  0.5500E+02  0.5507E+02
     16.573 -0.3074E-01 -0.4202E+00  0.5500E+02  0.5503E+02
     16.656 -0.4429E-02 -0.2886E+00  0.5500E+02  0.5501E+02
     16.738 -0.4300E-03 -0.9140E-01  0.5500E+02  0.5500E+02
     16.821 -0.3580E-04 -0.1768E-01  0.5500E+02  0.5500E+02
     16.903 -0.1439E-03 -0.2248E-02  0.5500E+02  0.5500E+02
     16.986 -0.1957E-02 -0.1939E-03  0.5500E+02  0.5500E+02
     17.068 -0.1837E-01 -0.1172E-04  0.5500E+02  0.5500E+02
     17.151 -0.1153E+00 -0.6206E-05  0.5499E+02  0.5500E+02
     17.233 -0.4612E+00 -0.1166E-03  0.5495E+02  0.5500E+02
     17.316 -0.1021E+01 -0.1643E-02  0.5487E+02  0.5500E+02
     17.398 -0.3833E+00 -0.1586E-01  0.5483E+02  0.5500E+02
     17.481  0.4520E+01 -0.1026E+00  0.5521E+02  0.5499E+02
     17.563  0.1387E+02 -0.4249E+00  0.5635E+02  0.5496E+02
     17.646  0.2047E+02 -0.9917E+00  0.5804E+02  0.5487E+02
     17.728  0.1720E+02 -0.5331E+00  0.5946E+02  0.5483E+02
     17.811  0.7733E+01  0.3983E+01  0.6010E+02  0.5516E+02
     17.893  0.8020E+00  0.1318E+02  0.6016E+02  0.5625E+02
     17.976 -0.1071E+01  0.2029E+02  0.6008E+02  0.5792E+02
     18.058 -0.6754E+00  0.1775E+02  0.6002E+02  0.5938E+02
     18.141 -0.2051E+00  0.8409E+01  0.6000E+02  0.6008E+02
     18.223 -0.3836E-01  0.1113E+01  0.6000E+02  0.6017E+02
     18.306 -0.4733E-02 -0.1052E+01  0.6000E+02  0.6008E+02
     18.388 -0.3968E-03 -0.7191E+00  0.6000E+02  0.6002E+02
     18.471 -0.2294E-04 -0.2272E+00  0.6000E+02  0.6000E+02
     18.553 -0.9232E-06 -0.4386E-01  0.6000E+02  0.6000E+02
     18.636 -0.2600E-07 -0.5569E-02  0.6000E+02  0.6000E+02
     18.718 -0.5145E-09 -0.4796E-03  0.6000E+02  0.6000E+02
     18.801 -0.7172E-11 -0.2846E-04  0.6000E+02  0.6000E+02
     18.883 -0.6728E-13 -0.1175E-05  0.6000E+02  0.6000E+02
     18.966  0.0000E+00 -0.3395E-07  0.6000E+02  0.6000E+02
     19.048  0.0000E+00 -0.6888E-09  0.6000E+02  0.6000E+02
     19.131  0.0000E+00 -0.9837E-11  0.6000E+02  0.6000E+02
     19.214  0.0000E+00 -0.1077E-12  0.6000E+02  0.6000E+02
     19.296  0.0000E+00  0.0000E+00  0.6000E+02  0.6000E+02
     19.379  0.0000E+00  0.0000E+00  0.6000E+02  0.6000E+02
     19.461  0.0000E+00  0.0000E+00  0.6000E+02  0.6000E+02
     19.544  0.0000E+00  0.0000E+00  0.6000E+02  0.6000E+02
     19.626  0.0000E+00  0.0000E+00  0.6000E+02  0.6000E+02
     19.709  0.0000E+00  0.0000E+00  0.6000E+02  0.6000E+02
     19.791  0.0000E+00  0.0000E+00  0.6000E+02  0.6000E+02
     19.874  0.0000E+00  0.0000E+00  0.6000E+02  0.6000E+02
     19.956  0.0000E+00  0.0000E+00  0.6000E+02  0.6000E+02
