   12   12    1    2
  0.1791015E+02  0.5990000E-09  0.5990000E-09  0.5990000E-09  0.5000000E-15
  1.000000000000000E-004
  CAR 
 unknown system                          
     68      1     60
 
  0.0000000E+00  0.0000000E+00  0.0000000E+00  0.1000000E+01
    1       -2.794966     -2.647673
    2        0.273910      0.437073
    3        0.273910      0.437073
    4        0.273910      0.437073
    5        0.585948      0.669791
    6        0.585948      0.669791
    7        0.585948      0.669791
    8        0.935899      1.082351
    9        0.935899      1.082351
   10        0.935899      1.082351
   11        1.541421      1.756975
   12        1.541421      1.756975
   13        1.541421      1.756975
   14        1.706158      1.849586
   15        1.706158      1.849586
   16        1.706158      1.849586
   17        1.706158      1.849586
   18        1.706158      1.849586
   19        1.706158      1.849586
   20        1.890240      1.953105
   21        1.890240      1.953105
   22        2.183359      2.243038
   23        2.183359      2.243038
   24        2.183359      2.243038
   25        2.617974      2.660136
   26        2.617974      2.660136
   27        2.617974      2.660136
   28        5.673813      5.834089
   29        5.673813      5.834089
   30        5.673813      5.834089
   31        5.673813      5.834089
   32        5.673813      5.834089
   33        5.673813      5.834089
   34        8.946321      9.252500
   35        8.946321      9.252500
   36        8.946321      9.252500
   37        9.917431     10.064720
   38        9.917431     10.064720
   39        9.917431     10.064720
   40       10.082642     10.410407
   41       10.764190     10.801402
   42       10.764190     10.801402
   43       10.764190     10.801402
   44       11.622880     11.912289
   45       11.622880     11.912289
   46       11.622880     11.912289
   47       13.551906     13.802059
   48       13.551906     13.802059
   49       13.551906     13.802059
   50       14.501287     14.604115
   51       15.431102     15.661916
   52       15.431102     15.661916
   53       15.431102     15.661916
   54       16.001721     16.223797
   55       16.001721     16.223797
   56       17.620123     17.956026
   57       17.620124     17.956027
   58       17.620124     17.956030
   59       17.620124     17.956030
   60       17.620124     17.956032
