       N       E                     dE             d eps       ncg     rms          rms(c)
DAV:   1     0.206994653639E+03    0.20699E+03   -0.24759E+04   240   0.797E+02
DAV:   2    -0.470205212882E+02   -0.25402E+03   -0.24335E+03   280   0.167E+02
DAV:   3    -0.527123372962E+02   -0.56918E+01   -0.56565E+01   300   0.239E+01
DAV:   4    -0.527617183453E+02   -0.49381E-01   -0.49371E-01   300   0.261E+00
DAV:   5    -0.527626606789E+02   -0.94233E-03   -0.94232E-03   320   0.371E-01    0.226E+01
DAV:   6    -0.487971554643E+02    0.39655E+01   -0.36600E+01   260   0.216E+01    0.116E+01
DAV:   7    -0.484888217342E+02    0.30833E+00   -0.14160E+00   300   0.495E+00    0.528E+00
DAV:   8    -0.484224656641E+02    0.66356E-01   -0.69982E-02   300   0.797E-01    0.272E+00
DAV:   9    -0.484079290723E+02    0.14537E-01   -0.18371E-02   280   0.502E-01    0.755E-01
DAV:  10    -0.484129047712E+02   -0.49757E-02   -0.54663E-03   280   0.286E-01    0.216E-01
DAV:  11    -0.484134911344E+02   -0.58636E-03   -0.63850E-04   300   0.834E-02    0.108E-01
DAV:  12    -0.484138123385E+02   -0.32120E-03   -0.18818E-04   280   0.445E-02    0.390E-02
DAV:  13    -0.484139059235E+02   -0.93585E-04   -0.69496E-05   260   0.220E-02
   1 F= -.48413906E+02 E0= -.48403040E+02  d E =-.325987E-01  mag=     2.2094
