<?xml version="1.0" encoding="ISO-8859-1"?>
<modeling>
 <generator>
  <i name="program" type="string">vasp </i>
  <i name="version" type="string">5.3.5  </i>
  <i name="subversion" type="string">31Mar14 (build Oct 26 2016 13:29:44) complex                          parallel </i>
  <i name="platform" type="string">GRP7IFC17NORMALVTST </i>
  <i name="date" type="string">2019 01 12 </i>
  <i name="time" type="string">23:35:32 </i>
 </generator>
 <incar>
  <i type="int" name="ISTART">     0</i>
  <i type="string" name="PREC">normal</i>
  <i type="int" name="ISPIN">     2</i>
  <i type="int" name="ICHARG">     2</i>
  <i type="int" name="IBRION">    -1</i>
  <i name="EDIFF">      0.00010000</i>
  <i name="EDIFFG">     -0.03000000</i>
  <i type="int" name="NSW">     0</i>
  <i type="int" name="ISIF">     2</i>
  <i type="int" name="ISYM">     1</i>
  <i name="ENCUT">    400.00000000</i>
  <i name="POTIM">      0.50000000</i>
  <i type="logical" name="LREAL"> F  </i>
  <i type="int" name="ISMEAR">     1</i>
  <i name="SIGMA">      0.20000000</i>
  <i type="string" name="GGA"> PE</i>
 </incar>
 <kpoints>
  <generation param="Monkhorst-Pack">
   <v type="int" name="divisions">       1        1        1 </v>
   <v name="usershift">      0.00000000       0.00000000       0.00000000 </v>
   <v name="genvec1">      1.00000000       0.00000000       0.00000000 </v>
   <v name="genvec2">      0.00000000       1.00000000       0.00000000 </v>
   <v name="genvec3">      0.00000000       0.00000000       1.00000000 </v>
   <v name="shift">      0.00000000       0.00000000       0.00000000 </v>
  </generation>
  <varray name="kpointlist" >
   <v>       0.00000000       0.00000000       0.00000000 </v>
  </varray>
  <varray name="weights" >
   <v>       1.00000000 </v>
  </varray>
 </kpoints>
 <parameters>
  <separator name="general" >
   <i type="string" name="SYSTEM">unknown system</i>
   <i type="logical" name="LCOMPAT"> F  </i>
  </separator>
  <separator name="electronic" >
   <i type="string" name="PREC">normal</i>
   <i name="ENMAX">    400.00000000</i>
   <i name="ENAUG">    356.67000000</i>
   <i name="EDIFF">      0.00010000</i>
   <i type="int" name="IALGO">    38</i>
   <i type="int" name="IWAVPR">    10</i>
   <i type="int" name="NBANDS">    60</i>
   <i name="NELECT">     68.00000000</i>
   <i type="int" name="TURBO">     0</i>
   <i type="int" name="IRESTART">     0</i>
   <i type="int" name="NREBOOT">     0</i>
   <i type="int" name="NMIN">     0</i>
   <i name="EREF">      0.00000000</i>
   <separator name="electronic smearing" >
    <i type="int" name="ISMEAR">     1</i>
    <i name="SIGMA">      0.20000000</i>
    <i name="KSPACING">      0.50000000</i>
    <i type="logical" name="KGAMMA"> T  </i>
   </separator>
   <separator name="electronic projectors" >
    <i type="logical" name="LREAL"> F  </i>
    <v name="ROPT">      0.00000000      0.00000000</v>
    <i type="int" name="LMAXPAW">  -100</i>
    <i type="int" name="LMAXMIX">     2</i>
    <i type="logical" name="NLSPLINE"> F  </i>
   </separator>
   <separator name="electronic startup" >
    <i type="int" name="ISTART">     0</i>
    <i type="int" name="ICHARG">     2</i>
    <i type="int" name="INIWAV">     1</i>
   </separator>
   <separator name="electronic spin" >
    <i type="int" name="ISPIN">     2</i>
    <i type="logical" name="LNONCOLLINEAR"> F  </i>
    <v name="MAGMOM">      1.00000000      1.00000000      1.00000000      1.00000000      1.00000000      1.00000000      1.00000000      1.00000000      1.00000000      1.00000000      1.00000000      1.00000000</v>
    <i name="NUPDOWN">     -1.00000000</i>
    <i type="logical" name="LSORBIT"> F  </i>
    <v name="SAXIS">      0.00000000      0.00000000      1.00000000</v>
    <i type="logical" name="LSPIRAL"> F  </i>
    <v name="QSPIRAL">      0.00000000      0.00000000      0.00000000</v>
    <i type="logical" name="LZEROZ"> F  </i>
   </separator>
   <separator name="electronic exchange-correlation" >
    <i type="logical" name="LASPH"> F  </i>
    <i type="logical" name="LMETAGGA"> F  </i>
   </separator>
   <separator name="electronic convergence" >
    <i type="int" name="NELM">    60</i>
    <i type="int" name="NELMDL">    -5</i>
    <i type="int" name="NELMIN">     2</i>
    <i name="ENINI">    400.00000000</i>
    <separator name="electronic convergence detail" >
     <i type="logical" name="LDIAG"> T  </i>
     <i type="logical" name="LSUBROT"> F  </i>
     <i name="WEIMIN">      0.00000000</i>
     <i name="EBREAK">      0.00000042</i>
     <i name="DEPER">      0.30000000</i>
     <i type="int" name="NRMM">     4</i>
     <i name="TIME">      0.40000000</i>
    </separator>
   </separator>
   <separator name="electronic mixer" >
    <i name="AMIX">      0.40000000</i>
    <i name="BMIX">      1.00000000</i>
    <i name="AMIN">      0.10000000</i>
    <i name="AMIX_MAG">      1.60000000</i>
    <i name="BMIX_MAG">      1.00000000</i>
    <separator name="electronic mixer details" >
     <i type="int" name="IMIX">     4</i>
     <i type="int" name="MAXMIX">   -45</i>
     <i name="WC">    100.00000000</i>
     <i type="int" name="INIMIX">     1</i>
     <i type="int" name="MIXPRE">     1</i>
     <i type="int" name="MREMOVE">     5</i>
    </separator>
   </separator>
   <separator name="electronic dipolcorrection" >
    <i type="logical" name="LDIPOL"> F  </i>
    <i type="logical" name="LMONO"> F  </i>
    <i type="int" name="IDIPOL">     0</i>
    <i name="EPSILON">      1.00000000</i>
    <v name="DIPOL">   -100.00000000   -100.00000000   -100.00000000</v>
    <i name="EFIELD">      0.00000000</i>
   </separator>
  </separator>
  <separator name="grids" >
   <i type="int" name="NGX">    30</i>
   <i type="int" name="NGY">    30</i>
   <i type="int" name="NGZ">    30</i>
   <i type="int" name="NGXF">    60</i>
   <i type="int" name="NGYF">    60</i>
   <i type="int" name="NGZF">    60</i>
   <i type="logical" name="ADDGRID"> F  </i>
  </separator>
  <separator name="ionic" >
   <i type="int" name="NSW">     0</i>
   <i type="int" name="IBRION">    -1</i>
   <i type="int" name="ISIF">     2</i>
   <i name="PSTRESS">      0.00000000</i>
   <i name="EDIFFG">     -0.03000000</i>
   <i type="int" name="NFREE">     0</i>
   <i name="POTIM">      0.50000000</i>
   <i name="SMASS">     -3.00000000</i>
   <i name="SCALEE">      1.00000000</i>
  </separator>
  <separator name="ionic md" >
   <i name="TEBEG">      0.00010000</i>
   <i name="TEEND">      0.00010000</i>
   <i type="int" name="NBLOCK">     1</i>
   <i type="int" name="KBLOCK">     1</i>
   <i type="int" name="NPACO">   256</i>
   <i name="APACO">     16.00000000</i>
  </separator>
  <separator name="symmetry" >
   <i type="int" name="ISYM">     1</i>
   <i name="SYMPREC">      0.00001000</i>
  </separator>
  <separator name="dos" >
   <i type="logical" name="LORBIT"> F  </i>
   <v name="RWIGS">     -1.00000000     -1.00000000</v>
   <i type="int" name="NEDOS">   301</i>
   <i name="EMIN">     10.00000000</i>
   <i name="EMAX">    -10.00000000</i>
   <i name="EFERMI">      0.00000000</i>
  </separator>
  <separator name="writing" >
   <i type="int" name="NWRITE">     2</i>
   <i type="logical" name="LWAVE"> T  </i>
   <i type="logical" name="LCHARG"> T  </i>
   <i type="logical" name="LPARD"> F  </i>
   <i type="logical" name="LVTOT"> F  </i>
   <i type="logical" name="LVHAR"> F  </i>
   <i type="logical" name="LELF"> F  </i>
   <i type="logical" name="LOPTICS"> F  </i>
   <v name="STM">      0.00000000      0.00000000      0.00000000      0.00000000      0.00000000      0.00000000      0.00000000</v>
  </separator>
  <separator name="performance" >
   <i type="int" name="NPAR">    20</i>
   <i type="int" name="NSIM">     4</i>
   <i type="int" name="NBLK">    -1</i>
   <i type="logical" name="LPLANE"> T  </i>
   <i type="logical" name="LSCALAPACK"> T  </i>
   <i type="logical" name="LSCAAWARE"> F  </i>
   <i type="logical" name="LSCALU"> F  </i>
   <i type="logical" name="LASYNC"> F  </i>
   <i type="logical" name="LORBITALREAL"> F  </i>
  </separator>
  <separator name="miscellaneous" >
   <i type="int" name="IDIOT">     3</i>
   <i type="logical" name="LMUSIC"> F  </i>
   <v name="POMASS">    196.96600000     26.98100000</v>
   <v name="DARWINR">      0.00000000      0.00000000</v>
   <v name="DARWINV">      1.00000000      1.00000000</v>
   <i type="logical" name="LCORR"> T  </i>
  </separator>
  <i type="logical" name="GGA_COMPAT"> T  </i>
  <i type="logical" name="LBERRY"> F  </i>
  <i type="int" name="ICORELEVEL">     0</i>
  <i type="logical" name="LDAU"> F  </i>
  <i type="int" name="I_CONSTRAINED_M">     0</i>
  <separator name="electronic exchange-correlation" >
   <i type="string" name="GGA">PE</i>
   <i type="int" name="VOSKOWN">     0</i>
   <i type="logical" name="LHFCALC"> F  </i>
   <i type="string" name="PRECFOCK"></i>
   <i type="logical" name="LSYMGRAD"> F  </i>
   <i type="logical" name="LHFONE"> F  </i>
   <i type="logical" name="LRHFCALC"> F  </i>
   <i type="logical" name="LTHOMAS"> F  </i>
   <i type="logical" name="LMODELHF"> F  </i>
   <i name="ENCUT4O">     -1.00000000</i>
   <i type="int" name="EXXOEP">     0</i>
   <i type="int" name="FOURORBIT">     0</i>
   <i name="AEXX">      0.00000000</i>
   <i name="HFALPHA">      0.00000000</i>
   <i name="MCALPHA">      0.00000000</i>
   <i name="ALDAX">      1.00000000</i>
   <i name="AGGAX">      1.00000000</i>
   <i name="ALDAC">      1.00000000</i>
   <i name="AGGAC">      1.00000000</i>
   <i type="int" name="NKREDX">     1</i>
   <i type="int" name="NKREDY">     1</i>
   <i type="int" name="NKREDZ">     1</i>
   <i type="logical" name="SHIFTRED"> F  </i>
   <i type="logical" name="ODDONLY"> F  </i>
   <i type="logical" name="EVENONLY"> F  </i>
   <i type="int" name="LMAXFOCK">     0</i>
   <i type="int" name="NMAXFOCKAE">     0</i>
   <i type="logical" name="LFOCKAEDFT"> F  </i>
   <i name="HFSCREEN">      0.00000000</i>
   <i name="HFSCREENC">      0.00000000</i>
   <i type="int" name="NBANDSGWLOW">     0</i>
  </separator>
  <separator name="vdW DFT" >
   <i type="logical" name="LUSE_VDW"> F  </i>
   <i name="Zab_VDW">     -0.84910000</i>
   <i name="PARAM1">      0.12340000</i>
   <i name="PARAM2">      1.00000000</i>
   <i name="PARAM3">      0.00000000</i>
  </separator>
  <separator name="model GW" >
   <i type="int" name="MODEL_GW">     0</i>
   <i name="MODEL_EPS0">     10.74608872</i>
   <i name="MODEL_ALPHA">      1.00000000</i>
  </separator>
  <separator name="linear response parameters" >
   <i type="logical" name="LEPSILON"> F  </i>
   <i type="logical" name="LRPA"> F  </i>
   <i type="logical" name="LNABLA"> F  </i>
   <i type="logical" name="LVEL"> F  </i>
   <i type="int" name="KINTER">     0</i>
   <i name="CSHIFT">      0.10000000</i>
   <i name="OMEGAMAX">     -1.00000000</i>
   <i name="DEG_THRESHOLD">      0.00200000</i>
  </separator>
  <separator name="orbital magnetization" >
   <i type="logical" name="NUCIND"> F  </i>
   <v name="MAGPOS">      0.00000000      0.00000000      0.00000000</v>
   <i type="logical" name="LNICSALL"> T  </i>
   <i type="logical" name="ORBITALMAG"> F  </i>
   <i type="logical" name="LMAGBLOCH"> F  </i>
   <i type="logical" name="LCHIMAG"> F  </i>
   <i type="logical" name="LGAUGE"> T  </i>
   <i type="int" name="MAGATOM">     0</i>
   <v name="MAGDIPOL">      0.00000000      0.00000000      0.00000000</v>
   <v name="AVECCONST">      0.00000000      0.00000000      0.00000000</v>
  </separator>
  <separator name="response functions" >
   <i type="logical" name="LADDER"> F  </i>
   <i type="logical" name="LFXC"> F  </i>
   <i type="logical" name="LHARTREE"> T  </i>
   <i type="int" name="IBSE">     0</i>
   <i type="logical" name="LTCTE"> F  </i>
   <i type="logical" name="LTETE"> F  </i>
   <i type="logical" name="LTRIPLET"> F  </i>
   <i type="logical" name="LFXCEPS"> F  </i>
   <i type="logical" name="LFXHEG"> F  </i>
   <i type="logical" name="L2ORDER"> F  </i>
   <i type="logical" name="LUSEW"> F  </i>
   <i name="ENCUTGW">     -2.00000000</i>
   <i name="ENCUTGWSOFT">     -2.00000000</i>
   <i name="ENCUTLF">     -1.00000000</i>
   <i type="int" name="LMAXMP2">    -1</i>
   <i name="SCISSOR">      0.00000000</i>
   <i type="int" name="NOMEGA">     0</i>
   <i type="int" name="NOMEGAR">     0</i>
   <i type="int" name="NBANDSGW">    -1</i>
   <i type="int" name="NBANDSO">    -1</i>
   <i type="int" name="NBANDSV">    -1</i>
   <i type="int" name="NELM">     1</i>
   <i type="int" name="DIM">     3</i>
   <i type="int" name="ANTIRES">     0</i>
   <i name="OMEGAMAX">    -30.00000000</i>
   <i name="OMEGAMIN">    -30.00000000</i>
   <i name="OMEGATL">   -200.00000000</i>
   <i type="int" name="OMEGAGRID">     0</i>
   <i name="CSHIFT">     -0.10000000</i>
   <i type="logical" name="SELFENERGY"> F  </i>
   <i type="logical" name="LSPECTRAL"> F  </i>
   <i type="logical" name="ODDONLYGW"> F  </i>
   <i type="logical" name="EVENONLYGW"> F  </i>
   <i type="int" name="NKREDLFX">     1</i>
   <i type="int" name="NKREDLFY">     1</i>
   <i type="int" name="NKREDLFZ">     1</i>
   <i type="int" name="MAXMEM">  1800</i>
   <i type="int" name="TELESCOPE">     0</i>
   <i type="int" name="TAUPAR">     1</i>
  </separator>
  <separator name="External order field" >
   <i name="OFIELD_KAPPA">      0.00000000</i>
   <v name="OFIELD_K">      0.00000000      0.00000000      0.00000000</v>
   <i name="OFIELD_Q6_NEAR">      0.00000000</i>
   <i name="OFIELD_Q6_FAR">      0.00000000</i>
   <i name="OFIELD_A">      0.00000000</i>
  </separator>
 </parameters>
 <atominfo>
  <atoms>      12 </atoms>
  <types>       2 </types>
  <array name="atoms" >
   <dimension dim="1">ion</dimension>
   <field type="string">element</field>
   <field type="int">atomtype</field>
   <set>
    <rc><c>Au</c><c>   1</c></rc>
    <rc><c>Au</c><c>   1</c></rc>
    <rc><c>Au</c><c>   1</c></rc>
    <rc><c>Au</c><c>   1</c></rc>
    <rc><c>Al</c><c>   2</c></rc>
    <rc><c>Al</c><c>   2</c></rc>
    <rc><c>Al</c><c>   2</c></rc>
    <rc><c>Al</c><c>   2</c></rc>
    <rc><c>Al</c><c>   2</c></rc>
    <rc><c>Al</c><c>   2</c></rc>
    <rc><c>Al</c><c>   2</c></rc>
    <rc><c>Al</c><c>   2</c></rc>
   </set>
  </array>
  <array name="atomtypes" >
   <dimension dim="1">type</dimension>
   <field type="int">atomspertype</field>
   <field type="string">element</field>
   <field>mass</field>
   <field>valence</field>
   <field type="string">pseudopotential</field>
   <set>
    <rc><c>   4</c><c>Au</c><c>    196.96600000</c><c>     11.00000000</c><c>  PAW_PBE Au 04Oct2007                  </c></rc>
    <rc><c>   8</c><c>Al</c><c>     26.98100000</c><c>      3.00000000</c><c>  PAW_PBE Al 04Jan2001                  </c></rc>
   </set>
  </array>
 </atominfo>
 <structure name="initialpos" >
  <crystal>
   <varray name="basis" >
    <v>       5.98999977       0.00000000       0.00000000 </v>
    <v>       0.00000000       5.98999977       0.00000000 </v>
    <v>       0.00000000       0.00000000       5.98999977 </v>
   </varray>
   <i name="volume">    214.92177436 </i>
   <varray name="rec_basis" >
    <v>       0.16694491       0.00000000       0.00000000 </v>
    <v>       0.00000000       0.16694491       0.00000000 </v>
    <v>       0.00000000       0.00000000       0.16694491 </v>
   </varray>
  </crystal>
  <varray name="positions" >
   <v>       0.00000000       0.00000000       0.00000000 </v>
   <v>       0.00000000       0.50000000       0.50000000 </v>
   <v>       0.50000000       0.00000000       0.50000000 </v>
   <v>       0.50000000       0.50000000       0.00000000 </v>
   <v>       0.25000000       0.25000000       0.25000000 </v>
   <v>       0.75000000       0.75000000       0.75000000 </v>
   <v>       0.75000000       0.75000000       0.25000000 </v>
   <v>       0.25000000       0.25000000       0.75000000 </v>
   <v>       0.75000000       0.25000000       0.75000000 </v>
   <v>       0.25000000       0.75000000       0.25000000 </v>
   <v>       0.25000000       0.75000000       0.75000000 </v>
   <v>       0.75000000       0.25000000       0.25000000 </v>
  </varray>
 </structure>
 <calculation>
  <scstep>
   <time name="dav">    0.10    0.10</time>
   <time name="total">    0.12    0.12</time>
   <energy>
    <i name="alphaZ">    131.17872998 </i>
    <i name="ewald">  -3667.33796567 </i>
    <i name="hartreedc">  -1082.91852788 </i>
    <i name="XCdc">   -144.49143130 </i>
    <i name="pawpsdc">   4024.83691352 </i>
    <i name="pawaedc">  -3676.88255307 </i>
    <i name="eentropy">     -0.01321872 </i>
    <i name="bandstr">    489.99539714 </i>
    <i name="atom">   4132.62730964 </i>
    <i name="e_fr_energy">    206.99465364 </i>
    <i name="e_wo_entrp">    207.00787235 </i>
    <i name="e_0_energy">    206.99905988 </i>
   </energy>
  </scstep>
  <scstep>
   <time name="dav">    0.10    0.10</time>
   <time name="total">    0.10    0.10</time>
   <energy>
    <i name="e_fr_energy">    -47.02052129 </i>
    <i name="e_wo_entrp">    -46.93188498 </i>
    <i name="e_0_energy">    -46.99097585 </i>
   </energy>
  </scstep>
  <scstep>
   <time name="dav">    0.10    0.10</time>
   <time name="total">    0.10    0.11</time>
   <energy>
    <i name="e_fr_energy">    -52.71233730 </i>
    <i name="e_wo_entrp">    -52.61190019 </i>
    <i name="e_0_energy">    -52.67885826 </i>
   </energy>
  </scstep>
  <scstep>
   <time name="dav">    0.10    0.10</time>
   <time name="total">    0.10    0.11</time>
   <energy>
    <i name="e_fr_energy">    -52.76171835 </i>
    <i name="e_wo_entrp">    -52.66122127 </i>
    <i name="e_0_energy">    -52.72821932 </i>
   </energy>
  </scstep>
  <scstep>
   <time name="dav">    0.11    0.11</time>
   <time name="total">    0.21    0.22</time>
   <energy>
    <i name="e_fr_energy">    -52.76266068 </i>
    <i name="e_wo_entrp">    -52.66216165 </i>
    <i name="e_0_energy">    -52.72916100 </i>
   </energy>
  </scstep>
  <scstep>
   <time name="dav">    0.09    0.09</time>
   <time name="total">    0.21    0.21</time>
   <energy>
    <i name="e_fr_energy">    -48.79715546 </i>
    <i name="e_wo_entrp">    -48.75569669 </i>
    <i name="e_0_energy">    -48.78333587 </i>
   </energy>
  </scstep>
  <scstep>
   <time name="dav">    0.10    0.11</time>
   <time name="total">    0.23    0.23</time>
   <energy>
    <i name="e_fr_energy">    -48.48882173 </i>
    <i name="e_wo_entrp">    -48.45566422 </i>
    <i name="e_0_energy">    -48.47776923 </i>
   </energy>
  </scstep>
  <scstep>
   <time name="dav">    0.10    0.11</time>
   <time name="total">    0.23    0.23</time>
   <energy>
    <i name="e_fr_energy">    -48.42246566 </i>
    <i name="e_wo_entrp">    -48.38964851 </i>
    <i name="e_0_energy">    -48.41152661 </i>
   </energy>
  </scstep>
  <scstep>
   <time name="dav">    0.10    0.10</time>
   <time name="total">    0.21    0.22</time>
   <energy>
    <i name="e_fr_energy">    -48.40792907 </i>
    <i name="e_wo_entrp">    -48.37571383 </i>
    <i name="e_0_energy">    -48.39719066 </i>
   </energy>
  </scstep>
  <scstep>
   <time name="dav">    0.10    0.10</time>
   <time name="total">    0.22    0.22</time>
   <energy>
    <i name="e_fr_energy">    -48.41290477 </i>
    <i name="e_wo_entrp">    -48.38028658 </i>
    <i name="e_0_energy">    -48.40203204 </i>
   </energy>
  </scstep>
  <scstep>
   <time name="dav">    0.10    0.10</time>
   <time name="total">    0.22    0.23</time>
   <energy>
    <i name="e_fr_energy">    -48.41349113 </i>
    <i name="e_wo_entrp">    -48.38085711 </i>
    <i name="e_0_energy">    -48.40261313 </i>
   </energy>
  </scstep>
  <scstep>
   <time name="dav">    0.10    0.10</time>
   <time name="total">    0.21    0.22</time>
   <energy>
    <i name="e_fr_energy">    -48.41381234 </i>
    <i name="e_wo_entrp">    -48.38112727 </i>
    <i name="e_0_energy">    -48.40291732 </i>
   </energy>
  </scstep>
  <scstep>
   <time name="dav">    0.09    0.09</time>
   <time name="total">    0.11    0.12</time>
   <energy>
    <i name="alphaZ">    131.17872998 </i>
    <i name="ewald">  -3667.33796567 </i>
    <i name="hartreedc">   -983.16476778 </i>
    <i name="XCdc">   -148.03094455 </i>
    <i name="pawpsdc">   5509.39964173 </i>
    <i name="pawaedc">  -5184.50340944 </i>
    <i name="eentropy">     -0.03259874 </i>
    <i name="bandstr">    161.45009890 </i>
    <i name="atom">   4132.62730964 </i>
    <i name="e_fr_energy">    -48.41390592 </i>
    <i name="e_wo_entrp">    -48.38130718 </i>
    <i name="e_0_energy">    -48.40303968 </i>
   </energy>
  </scstep>
  <structure>
   <crystal>
    <varray name="basis" >
     <v>       5.98999977       0.00000000       0.00000000 </v>
     <v>       0.00000000       5.98999977       0.00000000 </v>
     <v>       0.00000000       0.00000000       5.98999977 </v>
    </varray>
    <i name="volume">    214.92177436 </i>
    <varray name="rec_basis" >
     <v>       0.16694491       0.00000000       0.00000000 </v>
     <v>       0.00000000       0.16694491       0.00000000 </v>
     <v>       0.00000000       0.00000000       0.16694491 </v>
    </varray>
   </crystal>
   <varray name="positions" >
    <v>       0.00000000       0.00000000       0.00000000 </v>
    <v>       0.00000000       0.50000000       0.50000000 </v>
    <v>       0.50000000       0.00000000       0.50000000 </v>
    <v>       0.50000000       0.50000000       0.00000000 </v>
    <v>       0.25000000       0.25000000       0.25000000 </v>
    <v>       0.75000000       0.75000000       0.75000000 </v>
    <v>       0.75000000       0.75000000       0.25000000 </v>
    <v>       0.25000000       0.25000000       0.75000000 </v>
    <v>       0.75000000       0.25000000       0.75000000 </v>
    <v>       0.25000000       0.75000000       0.25000000 </v>
    <v>       0.25000000       0.75000000       0.75000000 </v>
    <v>       0.75000000       0.25000000       0.25000000 </v>
   </varray>
  </structure>
  <varray name="forces" >
   <v>       0.00000000       0.00000000       0.00000000 </v>
   <v>       0.00000000      -0.00000000      -0.00000000 </v>
   <v>      -0.00000000       0.00000000      -0.00000000 </v>
   <v>      -0.00000000       0.00000000      -0.00000000 </v>
   <v>      -0.00000000       0.00000000       0.00000000 </v>
   <v>      -0.00000000      -0.00000000       0.00000000 </v>
   <v>      -0.00000000      -0.00000000       0.00000000 </v>
   <v>      -0.00000000       0.00000000       0.00000000 </v>
   <v>      -0.00000000       0.00000000       0.00000000 </v>
   <v>      -0.00000000      -0.00000000       0.00000000 </v>
   <v>      -0.00000000      -0.00000000       0.00000000 </v>
   <v>      -0.00000000       0.00000000       0.00000000 </v>
  </varray>
  <varray name="stress" >
   <v>      41.04346337       0.00000000       0.00000000 </v>
   <v>       0.00000000      41.04346337       0.00000000 </v>
   <v>       0.00000000      -0.00000000      41.04346337 </v>
  </varray>
  <energy>
   <i name="e_fr_energy">    -48.41390592 </i>
   <i name="e_wo_entrp">    -48.40303968 </i>
   <i name="e_0_energy">     -0.03259874 </i>
  </energy>
  <time name="totalsc">    3.08    3.16</time>
  <eigenvalues>
   <array>
    <dimension dim="1">band</dimension>
    <dimension dim="2">kpoint</dimension>
    <dimension dim="3">spin</dimension>
    <field>eigene</field>
    <field>occ</field>
    <set>
     <set comment="spin 1">
      <set comment="kpoint 1">
       <r>   -2.7950    1.0000 </r>
       <r>    0.2739    1.0000 </r>
       <r>    0.2739    1.0000 </r>
       <r>    0.2739    1.0000 </r>
       <r>    0.5859    1.0000 </r>
       <r>    0.5859    1.0000 </r>
       <r>    0.5859    1.0000 </r>
       <r>    0.9359    1.0000 </r>
       <r>    0.9359    1.0000 </r>
       <r>    0.9359    1.0000 </r>
       <r>    1.5414    1.0000 </r>
       <r>    1.5414    1.0000 </r>
       <r>    1.5414    1.0000 </r>
       <r>    1.7062    1.0000 </r>
       <r>    1.7062    1.0000 </r>
       <r>    1.7062    1.0000 </r>
       <r>    1.7062    1.0000 </r>
       <r>    1.7062    1.0000 </r>
       <r>    1.7062    1.0000 </r>
       <r>    1.8902    1.0000 </r>
       <r>    1.8902    1.0000 </r>
       <r>    2.1834    1.0000 </r>
       <r>    2.1834    1.0000 </r>
       <r>    2.1834    1.0000 </r>
       <r>    2.6180    1.0000 </r>
       <r>    2.6180    1.0000 </r>
       <r>    2.6180    1.0000 </r>
       <r>    5.6738    1.0000 </r>
       <r>    5.6738    1.0000 </r>
       <r>    5.6738    1.0000 </r>
       <r>    5.6738    1.0000 </r>
       <r>    5.6738    1.0000 </r>
       <r>    5.6738    1.0000 </r>
       <r>    8.9463    0.7016 </r>
       <r>    8.9463    0.7016 </r>
       <r>    8.9463    0.7016 </r>
       <r>    9.9174   -0.0000 </r>
       <r>    9.9174   -0.0000 </r>
       <r>    9.9174   -0.0000 </r>
       <r>   10.0826   -0.0000 </r>
       <r>   10.7642   -0.0000 </r>
       <r>   10.7642   -0.0000 </r>
       <r>   10.7642   -0.0000 </r>
       <r>   11.6229   -0.0000 </r>
       <r>   11.6229   -0.0000 </r>
       <r>   11.6229   -0.0000 </r>
       <r>   13.5519   -0.0000 </r>
       <r>   13.5519   -0.0000 </r>
       <r>   13.5519   -0.0000 </r>
       <r>   14.5013    0.0000 </r>
       <r>   15.4311    0.0000 </r>
       <r>   15.4311    0.0000 </r>
       <r>   15.4311    0.0000 </r>
       <r>   16.0017    0.0000 </r>
       <r>   16.0017    0.0000 </r>
       <r>   17.6201    0.0000 </r>
       <r>   17.6201    0.0000 </r>
       <r>   17.6201    0.0000 </r>
       <r>   17.6201    0.0000 </r>
       <r>   17.6201    0.0000 </r>
      </set>
     </set>
     <set comment="spin 2">
      <set comment="kpoint 1">
       <r>   -2.6477    1.0000 </r>
       <r>    0.4371    1.0000 </r>
       <r>    0.4371    1.0000 </r>
       <r>    0.4371    1.0000 </r>
       <r>    0.6698    1.0000 </r>
       <r>    0.6698    1.0000 </r>
       <r>    0.6698    1.0000 </r>
       <r>    1.0824    1.0000 </r>
       <r>    1.0824    1.0000 </r>
       <r>    1.0824    1.0000 </r>
       <r>    1.7570    1.0000 </r>
       <r>    1.7570    1.0000 </r>
       <r>    1.7570    1.0000 </r>
       <r>    1.8496    1.0000 </r>
       <r>    1.8496    1.0000 </r>
       <r>    1.8496    1.0000 </r>
       <r>    1.8496    1.0000 </r>
       <r>    1.8496    1.0000 </r>
       <r>    1.8496    1.0000 </r>
       <r>    1.9531    1.0000 </r>
       <r>    1.9531    1.0000 </r>
       <r>    2.2430    1.0000 </r>
       <r>    2.2430    1.0000 </r>
       <r>    2.2430    1.0000 </r>
       <r>    2.6601    1.0000 </r>
       <r>    2.6601    1.0000 </r>
       <r>    2.6601    1.0000 </r>
       <r>    5.8341    1.0000 </r>
       <r>    5.8341    1.0000 </r>
       <r>    5.8341    1.0000 </r>
       <r>    5.8341    1.0000 </r>
       <r>    5.8341    1.0000 </r>
       <r>    5.8341    1.0000 </r>
       <r>    9.2525   -0.0350 </r>
       <r>    9.2525   -0.0350 </r>
       <r>    9.2525   -0.0350 </r>
       <r>   10.0647   -0.0000 </r>
       <r>   10.0647   -0.0000 </r>
       <r>   10.0647   -0.0000 </r>
       <r>   10.4104   -0.0000 </r>
       <r>   10.8014   -0.0000 </r>
       <r>   10.8014   -0.0000 </r>
       <r>   10.8014   -0.0000 </r>
       <r>   11.9123   -0.0000 </r>
       <r>   11.9123   -0.0000 </r>
       <r>   11.9123   -0.0000 </r>
       <r>   13.8021   -0.0000 </r>
       <r>   13.8021   -0.0000 </r>
       <r>   13.8021   -0.0000 </r>
       <r>   14.6041    0.0000 </r>
       <r>   15.6619    0.0000 </r>
       <r>   15.6619    0.0000 </r>
       <r>   15.6619    0.0000 </r>
       <r>   16.2238    0.0000 </r>
       <r>   16.2238    0.0000 </r>
       <r>   17.9560    0.0000 </r>
       <r>   17.9560    0.0000 </r>
       <r>   17.9560    0.0000 </r>
       <r>   17.9560    0.0000 </r>
       <r>   17.9560    0.0000 </r>
      </set>
     </set>
    </set>
   </array>
  </eigenvalues>
  <separator name="orbital magnetization" >
   <v name="MAGDIPOLOUT">      0.00000000      0.00000000      0.00000000</v>
  </separator>
  <dos>
   <i name="efermi">      8.99558816 </i>
   <total>
    <array>
     <dimension dim="1">gridpoints</dimension>
     <dimension dim="2">spin</dimension>
     <field>energy</field>
     <field>total</field>
     <field>integrated</field>
     <set>
      <set comment="spin 1">
       <r>    -4.7950     0.0000     0.0000 </r>
       <r>    -4.7125     0.0000     0.0000 </r>
       <r>    -4.6300     0.0000     0.0000 </r>
       <r>    -4.5475     0.0000     0.0000 </r>
       <r>    -4.4650    -0.0000    -0.0000 </r>
       <r>    -4.3824    -0.0000    -0.0000 </r>
       <r>    -4.2999    -0.0000    -0.0000 </r>
       <r>    -4.2174    -0.0000    -0.0000 </r>
       <r>    -4.1349    -0.0000    -0.0000 </r>
       <r>    -4.0524    -0.0000    -0.0000 </r>
       <r>    -3.9699    -0.0000    -0.0000 </r>
       <r>    -3.8874    -0.0000    -0.0000 </r>
       <r>    -3.8049    -0.0000    -0.0000 </r>
       <r>    -3.7224    -0.0000    -0.0000 </r>
       <r>    -3.6399    -0.0000    -0.0000 </r>
       <r>    -3.5574    -0.0000    -0.0000 </r>
       <r>    -3.4749    -0.0001    -0.0000 </r>
       <r>    -3.3924    -0.0011    -0.0001 </r>
       <r>    -3.3099    -0.0088    -0.0008 </r>
       <r>    -3.2274    -0.0454    -0.0046 </r>
       <r>    -3.1449    -0.1438    -0.0164 </r>
       <r>    -3.0624    -0.2104    -0.0338 </r>
       <r>    -2.9799     0.2225    -0.0154 </r>
       <r>    -2.8974     1.6818     0.1233 </r>
       <r>    -2.8149     3.5496     0.4162 </r>
       <r>    -2.7324     4.0582     0.7510 </r>
       <r>    -2.6499     2.6357     0.9684 </r>
       <r>    -2.5674     0.7965     1.0342 </r>
       <r>    -2.4849    -0.1066     1.0254 </r>
       <r>    -2.4024    -0.1983     1.0090 </r>
       <r>    -2.3199    -0.0850     1.0020 </r>
       <r>    -2.2374    -0.0205     1.0003 </r>
       <r>    -2.1549    -0.0032     1.0000 </r>
       <r>    -2.0724    -0.0003     1.0000 </r>
       <r>    -1.9899    -0.0000     1.0000 </r>
       <r>    -1.9073    -0.0000     1.0000 </r>
       <r>    -1.8248    -0.0000     1.0000 </r>
       <r>    -1.7423    -0.0000     1.0000 </r>
       <r>    -1.6598    -0.0000     1.0000 </r>
       <r>    -1.5773    -0.0000     1.0000 </r>
       <r>    -1.4948    -0.0000     1.0000 </r>
       <r>    -1.4123     0.0000     1.0000 </r>
       <r>    -1.3298    -0.0000     1.0000 </r>
       <r>    -1.2473    -0.0000     1.0000 </r>
       <r>    -1.1648    -0.0000     1.0000 </r>
       <r>    -1.0823    -0.0000     1.0000 </r>
       <r>    -0.9998    -0.0000     1.0000 </r>
       <r>    -0.9173    -0.0000     1.0000 </r>
       <r>    -0.8348    -0.0000     1.0000 </r>
       <r>    -0.7523    -0.0000     1.0000 </r>
       <r>    -0.6698    -0.0000     1.0000 </r>
       <r>    -0.5873    -0.0000     1.0000 </r>
       <r>    -0.5048    -0.0000     1.0000 </r>
       <r>    -0.4223    -0.0002     1.0000 </r>
       <r>    -0.3398    -0.0021     0.9998 </r>
       <r>    -0.2573    -0.0181     0.9983 </r>
       <r>    -0.1748    -0.1022     0.9899 </r>
       <r>    -0.0923    -0.3603     0.9602 </r>
       <r>    -0.0098    -0.6511     0.9064 </r>
       <r>     0.0727     0.1672     0.9202 </r>
       <r>     0.1552     3.8123     1.2348 </r>
       <r>     0.2377     9.2586     1.9986 </r>
       <r>     0.3202    11.7583     2.9687 </r>
       <r>     0.4027     9.7449     3.7727 </r>
       <r>     0.4852     8.3834     4.4644 </r>
       <r>     0.5677    10.3503     5.3183 </r>
       <r>     0.6503    10.8540     6.2138 </r>
       <r>     0.7328     7.6124     6.8418 </r>
       <r>     0.8153     6.0407     7.3402 </r>
       <r>     0.8978     9.2148     8.1005 </r>
       <r>     0.9803    11.7950     9.0736 </r>
       <r>     1.0628     8.8599     9.8046 </r>
       <r>     1.1453     3.1169    10.0617 </r>
       <r>     1.2278    -0.7045    10.0036 </r>
       <r>     1.3103    -1.4985     9.8800 </r>
       <r>     1.3928     0.6843     9.9364 </r>
       <r>     1.4753     6.7147    10.4904 </r>
       <r>     1.5578    16.1736    11.8248 </r>
       <r>     1.6403    25.7966    13.9531 </r>
       <r>     1.7228    30.2957    16.4526 </r>
       <r>     1.8053    26.3136    18.6235 </r>
       <r>     1.8878    16.9480    20.0218 </r>
       <r>     1.9703     8.8150    20.7491 </r>
       <r>     2.0528     6.2460    21.2644 </r>
       <r>     2.1353     8.9705    22.0045 </r>
       <r>     2.2178    11.5134    22.9544 </r>
       <r>     2.3003     8.8268    23.6826 </r>
       <r>     2.3828     3.5093    23.9721 </r>
       <r>     2.4653     2.2102    24.1545 </r>
       <r>     2.5478     6.7112    24.7082 </r>
       <r>     2.6303    11.6216    25.6670 </r>
       <r>     2.7128    10.9297    26.5687 </r>
       <r>     2.7953     5.5586    27.0273 </r>
       <r>     2.8778     0.9299    27.1041 </r>
       <r>     2.9603    -0.6056    27.0541 </r>
       <r>     3.0428    -0.4652    27.0157 </r>
       <r>     3.1254    -0.1549    27.0029 </r>
       <r>     3.2079    -0.0312    27.0004 </r>
       <r>     3.2904    -0.0041    27.0000 </r>
       <r>     3.3729    -0.0004    27.0000 </r>
       <r>     3.4554    -0.0000    27.0000 </r>
       <r>     3.5379    -0.0000    27.0000 </r>
       <r>     3.6204    -0.0000    27.0000 </r>
       <r>     3.7029    -0.0000    27.0000 </r>
       <r>     3.7854    -0.0000    27.0000 </r>
       <r>     3.8679    -0.0000    27.0000 </r>
       <r>     3.9504     0.0000    27.0000 </r>
       <r>     4.0329    -0.0000    27.0000 </r>
       <r>     4.1154    -0.0000    27.0000 </r>
       <r>     4.1979    -0.0000    27.0000 </r>
       <r>     4.2804    -0.0000    27.0000 </r>
       <r>     4.3629    -0.0000    27.0000 </r>
       <r>     4.4454    -0.0000    27.0000 </r>
       <r>     4.5279    -0.0000    27.0000 </r>
       <r>     4.6104    -0.0000    27.0000 </r>
       <r>     4.6929    -0.0000    27.0000 </r>
       <r>     4.7754    -0.0000    27.0000 </r>
       <r>     4.8579    -0.0000    27.0000 </r>
       <r>     4.9404    -0.0001    27.0000 </r>
       <r>     5.0229    -0.0014    26.9999 </r>
       <r>     5.1054    -0.0145    26.9987 </r>
       <r>     5.1879    -0.0988    26.9905 </r>
       <r>     5.2704    -0.4356    26.9546 </r>
       <r>     5.3529    -1.1125    26.8628 </r>
       <r>     5.4354    -0.9031    26.7883 </r>
       <r>     5.5179     3.6884    27.0926 </r>
       <r>     5.6005    14.2605    28.2691 </r>
       <r>     5.6830    23.7894    30.2319 </r>
       <r>     5.7655    22.3743    32.0778 </r>
       <r>     5.8480    11.6139    33.0360 </r>
       <r>     5.9305     2.1070    33.2098 </r>
       <r>     6.0130    -1.1810    33.1124 </r>
       <r>     6.0955    -0.9588    33.0333 </r>
       <r>     6.1780    -0.3267    33.0063 </r>
       <r>     6.2605    -0.0669    33.0008 </r>
       <r>     6.3430    -0.0089    33.0001 </r>
       <r>     6.4255    -0.0008    33.0000 </r>
       <r>     6.5080    -0.0001    33.0000 </r>
       <r>     6.5905    -0.0000    33.0000 </r>
       <r>     6.6730    -0.0000    33.0000 </r>
       <r>     6.7555    -0.0000    33.0000 </r>
       <r>     6.8380    -0.0000    33.0000 </r>
       <r>     6.9205    -0.0000    33.0000 </r>
       <r>     7.0030     0.0000    33.0000 </r>
       <r>     7.0855     0.0000    33.0000 </r>
       <r>     7.1680     0.0000    33.0000 </r>
       <r>     7.2505     0.0000    33.0000 </r>
       <r>     7.3330    -0.0000    33.0000 </r>
       <r>     7.4155    -0.0000    33.0000 </r>
       <r>     7.4980    -0.0000    33.0000 </r>
       <r>     7.5805    -0.0000    33.0000 </r>
       <r>     7.6630    -0.0000    33.0000 </r>
       <r>     7.7455    -0.0000    33.0000 </r>
       <r>     7.8280    -0.0000    33.0000 </r>
       <r>     7.9105    -0.0000    33.0000 </r>
       <r>     7.9930    -0.0000    33.0000 </r>
       <r>     8.0756    -0.0000    33.0000 </r>
       <r>     8.1581    -0.0000    33.0000 </r>
       <r>     8.2406    -0.0001    33.0000 </r>
       <r>     8.3231    -0.0016    32.9999 </r>
       <r>     8.4056    -0.0144    32.9987 </r>
       <r>     8.4881    -0.0855    32.9916 </r>
       <r>     8.5706    -0.3199    32.9652 </r>
       <r>     8.6531    -0.6376    32.9126 </r>
       <r>     8.7356    -0.0259    32.9105 </r>
       <r>     8.8181     3.3525    33.1871 </r>
       <r>     8.9006     9.0767    33.9359 </r>
       <r>     8.9831    12.3895    34.9581 </r>
       <r>     9.0656     9.6604    35.7551 </r>
       <r>     9.1481     3.9144    36.0781 </r>
       <r>     9.2306     0.1794    36.0929 </r>
       <r>     9.3131    -0.6501    36.0392 </r>
       <r>     9.3956    -0.3800    36.0079 </r>
       <r>     9.4781    -0.2229    35.9895 </r>
       <r>     9.5606    -0.4262    35.9543 </r>
       <r>     9.6431    -0.6862    35.8977 </r>
       <r>     9.7256     0.3181    35.9240 </r>
       <r>     9.8081     4.3581    36.2835 </r>
       <r>     9.8906    10.4129    37.1426 </r>
       <r>     9.9731    13.8156    38.2825 </r>
       <r>    10.0556    11.8114    39.2569 </r>
       <r>    10.1381     6.8656    39.8234 </r>
       <r>    10.2206     2.5758    40.0359 </r>
       <r>    10.3031     0.2297    40.0548 </r>
       <r>    10.3856    -0.6592    40.0004 </r>
       <r>    10.4681    -0.9084    39.9255 </r>
       <r>    10.5507    -0.1878    39.9100 </r>
       <r>    10.6332     3.1592    40.1706 </r>
       <r>    10.7157     8.8844    40.9036 </r>
       <r>    10.7982    12.3727    41.9244 </r>
       <r>    10.8807     9.8350    42.7358 </r>
       <r>    10.9632     4.0952    43.0737 </r>
       <r>    11.0457     0.2455    43.0940 </r>
       <r>    11.1282    -0.6890    43.0371 </r>
       <r>    11.2107    -0.5596    42.9910 </r>
       <r>    11.2932    -0.6267    42.9392 </r>
       <r>    11.3757    -0.5498    42.8939 </r>
       <r>    11.4582     1.4388    43.0126 </r>
       <r>    11.5407     6.4892    43.5480 </r>
       <r>    11.6232    11.5878    44.5040 </r>
       <r>    11.7057    11.5634    45.4580 </r>
       <r>    11.7882     6.4436    45.9896 </r>
       <r>    11.8707     1.4138    46.1063 </r>
       <r>    11.9532    -0.5355    46.0621 </r>
       <r>    12.0357    -0.5177    46.0194 </r>
       <r>    12.1182    -0.1883    46.0039 </r>
       <r>    12.2007    -0.0405    46.0005 </r>
       <r>    12.2832    -0.0057    46.0000 </r>
       <r>    12.3657    -0.0005    46.0000 </r>
       <r>    12.4482    -0.0000    46.0000 </r>
       <r>    12.5307    -0.0000    46.0000 </r>
       <r>    12.6132    -0.0000    46.0000 </r>
       <r>    12.6957    -0.0000    46.0000 </r>
       <r>    12.7782    -0.0000    46.0000 </r>
       <r>    12.8607    -0.0002    46.0000 </r>
       <r>    12.9432    -0.0024    45.9998 </r>
       <r>    13.0258    -0.0204    45.9981 </r>
       <r>    13.1083    -0.1119    45.9889 </r>
       <r>    13.1908    -0.3818    45.9574 </r>
       <r>    13.2733    -0.6474    45.9039 </r>
       <r>    13.3558     0.3276    45.9310 </r>
       <r>    13.4383     4.2827    46.2843 </r>
       <r>    13.5208    10.0084    47.1100 </r>
       <r>    13.6033    12.3486    48.1288 </r>
       <r>    13.6858     8.6944    48.8462 </r>
       <r>    13.7683     3.0163    49.0950 </r>
       <r>    13.8508    -0.1373    49.0837 </r>
       <r>    13.9333    -0.6289    49.0318 </r>
       <r>    14.0158    -0.3139    49.0059 </r>
       <r>    14.0983    -0.1498    48.9935 </r>
       <r>    14.1808    -0.1985    48.9772 </r>
       <r>    14.2633    -0.1506    48.9647 </r>
       <r>    14.3458     0.6207    49.0160 </r>
       <r>    14.4283     2.3860    49.2128 </r>
       <r>    14.5108     3.9688    49.5403 </r>
       <r>    14.5933     3.7232    49.8474 </r>
       <r>    14.6758     1.9265    50.0064 </r>
       <r>    14.7583     0.3459    50.0349 </r>
       <r>    14.8408    -0.2015    50.0183 </r>
       <r>    14.9233    -0.1901    50.0026 </r>
       <r>    15.0058    -0.2080    49.9854 </r>
       <r>    15.0883    -0.4745    49.9463 </r>
       <r>    15.1708    -0.6086    49.8961 </r>
       <r>    15.2533     0.9175    49.9718 </r>
       <r>    15.3358     5.5491    50.4296 </r>
       <r>    15.4183    11.0127    51.3382 </r>
       <r>    15.5009    11.9764    52.3263 </r>
       <r>    15.5834     7.2769    52.9266 </r>
       <r>    15.6659     1.6912    53.0662 </r>
       <r>    15.7484    -0.7936    53.0007 </r>
       <r>    15.8309     0.2189    53.0188 </r>
       <r>    15.9134     3.7992    53.3322 </r>
       <r>    15.9959     7.5033    53.9512 </r>
       <r>    16.0784     7.8508    54.5990 </r>
       <r>    16.1609     4.5933    54.9779 </r>
       <r>    16.2434     1.1260    55.0708 </r>
       <r>    16.3259    -0.3226    55.0442 </r>
       <r>    16.4084    -0.3621    55.0143 </r>
       <r>    16.4909    -0.1381    55.0029 </r>
       <r>    16.5734    -0.0307    55.0004 </r>
       <r>    16.6559    -0.0044    55.0000 </r>
       <r>    16.7384    -0.0004    55.0000 </r>
       <r>    16.8209    -0.0000    55.0000 </r>
       <r>    16.9034    -0.0001    55.0000 </r>
       <r>    16.9859    -0.0020    54.9998 </r>
       <r>    17.0684    -0.0184    54.9983 </r>
       <r>    17.1509    -0.1153    54.9888 </r>
       <r>    17.2334    -0.4612    54.9507 </r>
       <r>    17.3159    -1.0215    54.8665 </r>
       <r>    17.3984    -0.3833    54.8348 </r>
       <r>    17.4809     4.5196    55.2077 </r>
       <r>    17.5634    13.8743    56.3524 </r>
       <r>    17.6459    20.4688    58.0411 </r>
       <r>    17.7284    17.2024    59.4604 </r>
       <r>    17.8109     7.7334    60.0984 </r>
       <r>    17.8934     0.8020    60.1646 </r>
       <r>    17.9760    -1.0711    60.0762 </r>
       <r>    18.0585    -0.6754    60.0205 </r>
       <r>    18.1410    -0.2051    60.0036 </r>
       <r>    18.2235    -0.0384    60.0004 </r>
       <r>    18.3060    -0.0047    60.0000 </r>
       <r>    18.3885    -0.0004    60.0000 </r>
       <r>    18.4710    -0.0000    60.0000 </r>
       <r>    18.5535    -0.0000    60.0000 </r>
       <r>    18.6360    -0.0000    60.0000 </r>
       <r>    18.7185    -0.0000    60.0000 </r>
       <r>    18.8010    -0.0000    60.0000 </r>
       <r>    18.8835    -0.0000    60.0000 </r>
       <r>    18.9660     0.0000    60.0000 </r>
       <r>    19.0485     0.0000    60.0000 </r>
       <r>    19.1310     0.0000    60.0000 </r>
       <r>    19.2135     0.0000    60.0000 </r>
       <r>    19.2960     0.0000    60.0000 </r>
       <r>    19.3785     0.0000    60.0000 </r>
       <r>    19.4610     0.0000    60.0000 </r>
       <r>    19.5435     0.0000    60.0000 </r>
       <r>    19.6260     0.0000    60.0000 </r>
       <r>    19.7085     0.0000    60.0000 </r>
       <r>    19.7910     0.0000    60.0000 </r>
       <r>    19.8735     0.0000    60.0000 </r>
       <r>    19.9560     0.0000    60.0000 </r>
      </set>
      <set comment="spin 2">
       <r>    -4.7950     0.0000     0.0000 </r>
       <r>    -4.7125     0.0000     0.0000 </r>
       <r>    -4.6300     0.0000     0.0000 </r>
       <r>    -4.5475     0.0000     0.0000 </r>
       <r>    -4.4650     0.0000     0.0000 </r>
       <r>    -4.3824     0.0000     0.0000 </r>
       <r>    -4.2999    -0.0000    -0.0000 </r>
       <r>    -4.2174    -0.0000    -0.0000 </r>
       <r>    -4.1349    -0.0000    -0.0000 </r>
       <r>    -4.0524    -0.0000    -0.0000 </r>
       <r>    -3.9699    -0.0000    -0.0000 </r>
       <r>    -3.8874    -0.0000    -0.0000 </r>
       <r>    -3.8049    -0.0000    -0.0000 </r>
       <r>    -3.7224    -0.0000    -0.0000 </r>
       <r>    -3.6399    -0.0000    -0.0000 </r>
       <r>    -3.5574    -0.0000    -0.0000 </r>
       <r>    -3.4749    -0.0000    -0.0000 </r>
       <r>    -3.3924    -0.0000    -0.0000 </r>
       <r>    -3.3099    -0.0002    -0.0000 </r>
       <r>    -3.2274    -0.0018    -0.0002 </r>
       <r>    -3.1449    -0.0130    -0.0012 </r>
       <r>    -3.0624    -0.0609    -0.0063 </r>
       <r>    -2.9799    -0.1699    -0.0203 </r>
       <r>    -2.8974    -0.1830    -0.0354 </r>
       <r>    -2.8149     0.4444     0.0013 </r>
       <r>    -2.7324     2.1022     0.1747 </r>
       <r>    -2.6499     3.8293     0.4907 </r>
       <r>    -2.5674     3.8864     0.8113 </r>
       <r>    -2.4849     2.2089     0.9935 </r>
       <r>    -2.4024     0.5080     1.0355 </r>
       <r>    -2.3199    -0.1719     1.0213 </r>
       <r>    -2.2374    -0.1761     1.0067 </r>
       <r>    -2.1549    -0.0653     1.0014 </r>
       <r>    -2.0724    -0.0142     1.0002 </r>
       <r>    -1.9899    -0.0020     1.0000 </r>
       <r>    -1.9073    -0.0002     1.0000 </r>
       <r>    -1.8248    -0.0000     1.0000 </r>
       <r>    -1.7423    -0.0000     1.0000 </r>
       <r>    -1.6598    -0.0000     1.0000 </r>
       <r>    -1.5773    -0.0000     1.0000 </r>
       <r>    -1.4948    -0.0000     1.0000 </r>
       <r>    -1.4123    -0.0000     1.0000 </r>
       <r>    -1.3298     0.0000     1.0000 </r>
       <r>    -1.2473     0.0000     1.0000 </r>
       <r>    -1.1648    -0.0000     1.0000 </r>
       <r>    -1.0823    -0.0000     1.0000 </r>
       <r>    -0.9998    -0.0000     1.0000 </r>
       <r>    -0.9173    -0.0000     1.0000 </r>
       <r>    -0.8348    -0.0000     1.0000 </r>
       <r>    -0.7523    -0.0000     1.0000 </r>
       <r>    -0.6698    -0.0000     1.0000 </r>
       <r>    -0.5873    -0.0000     1.0000 </r>
       <r>    -0.5048    -0.0000     1.0000 </r>
       <r>    -0.4223    -0.0000     1.0000 </r>
       <r>    -0.3398    -0.0000     1.0000 </r>
       <r>    -0.2573    -0.0002     1.0000 </r>
       <r>    -0.1748    -0.0022     0.9998 </r>
       <r>    -0.0923    -0.0189     0.9982 </r>
       <r>    -0.0098    -0.1059     0.9895 </r>
       <r>     0.0727    -0.3713     0.9589 </r>
       <r>     0.1552    -0.6745     0.9032 </r>
       <r>     0.2377     0.1046     0.9118 </r>
       <r>     0.3202     3.6393     1.2121 </r>
       <r>     0.4027     9.1825     1.9697 </r>
       <r>     0.4852    13.0526     3.0466 </r>
       <r>     0.5677    13.9580     4.1982 </r>
       <r>     0.6503    13.7374     5.3315 </r>
       <r>     0.7328    11.6578     6.2933 </r>
       <r>     0.8153     6.6164     6.8392 </r>
       <r>     0.8978     2.7380     7.0651 </r>
       <r>     0.9803     4.6620     7.4498 </r>
       <r>     1.0628    10.0594     8.2797 </r>
       <r>     1.1453    11.9098     9.2623 </r>
       <r>     1.2278     7.7994     9.9058 </r>
       <r>     1.3103     2.2258    10.0894 </r>
       <r>     1.3928    -0.8759    10.0171 </r>
       <r>     1.4753    -1.9326     9.8577 </r>
       <r>     1.5578    -1.4514     9.7379 </r>
       <r>     1.6403     3.6375    10.0380 </r>
       <r>     1.7228    16.4338    11.3939 </r>
       <r>     1.8053    32.0935    14.0417 </r>
       <r>     1.8878    38.4258    17.2120 </r>
       <r>     1.9703    29.7672    19.6679 </r>
       <r>     2.0528    15.2558    20.9265 </r>
       <r>     2.1353     7.8046    21.5704 </r>
       <r>     2.2178     9.1446    22.3249 </r>
       <r>     2.3003    10.6849    23.2064 </r>
       <r>     2.3828     7.1302    23.7947 </r>
       <r>     2.4653     2.9122    24.0349 </r>
       <r>     2.5478     4.1089    24.3739 </r>
       <r>     2.6303     9.4743    25.1556 </r>
       <r>     2.7128    12.0596    26.1506 </r>
       <r>     2.7953     8.5342    26.8547 </r>
       <r>     2.8778     2.9280    27.0962 </r>
       <r>     2.9603    -0.1626    27.0828 </r>
       <r>     3.0428    -0.6234    27.0314 </r>
       <r>     3.1254    -0.2921    27.0073 </r>
       <r>     3.2079    -0.0748    27.0011 </r>
       <r>     3.2904    -0.0122    27.0001 </r>
       <r>     3.3729    -0.0013    27.0000 </r>
       <r>     3.4554    -0.0001    27.0000 </r>
       <r>     3.5379    -0.0000    27.0000 </r>
       <r>     3.6204    -0.0000    27.0000 </r>
       <r>     3.7029    -0.0000    27.0000 </r>
       <r>     3.7854    -0.0000    27.0000 </r>
       <r>     3.8679    -0.0000    27.0000 </r>
       <r>     3.9504    -0.0000    27.0000 </r>
       <r>     4.0329     0.0000    27.0000 </r>
       <r>     4.1154     0.0000    27.0000 </r>
       <r>     4.1979    -0.0000    27.0000 </r>
       <r>     4.2804    -0.0000    27.0000 </r>
       <r>     4.3629    -0.0000    27.0000 </r>
       <r>     4.4454    -0.0000    27.0000 </r>
       <r>     4.5279    -0.0000    27.0000 </r>
       <r>     4.6104    -0.0000    27.0000 </r>
       <r>     4.6929    -0.0000    27.0000 </r>
       <r>     4.7754    -0.0000    27.0000 </r>
       <r>     4.8579    -0.0000    27.0000 </r>
       <r>     4.9404    -0.0000    27.0000 </r>
       <r>     5.0229    -0.0000    27.0000 </r>
       <r>     5.1054    -0.0001    27.0000 </r>
       <r>     5.1879    -0.0016    26.9999 </r>
       <r>     5.2704    -0.0163    26.9985 </r>
       <r>     5.3529    -0.1089    26.9895 </r>
       <r>     5.4354    -0.4673    26.9510 </r>
       <r>     5.5179    -1.1482    26.8562 </r>
       <r>     5.6005    -0.7975    26.7904 </r>
       <r>     5.6830     4.1530    27.1331 </r>
       <r>     5.7655    14.9456    28.3661 </r>
       <r>     5.8480    24.0615    30.3513 </r>
       <r>     5.9305    21.9219    32.1599 </r>
       <r>     6.0130    10.9398    33.0625 </r>
       <r>     6.0955     1.7537    33.2072 </r>
       <r>     6.1780    -1.2233    33.1063 </r>
       <r>     6.2605    -0.9169    33.0306 </r>
       <r>     6.3430    -0.3021    33.0057 </r>
       <r>     6.4255    -0.0603    33.0007 </r>
       <r>     6.5080    -0.0079    33.0001 </r>
       <r>     6.5905    -0.0007    33.0000 </r>
       <r>     6.6730    -0.0000    33.0000 </r>
       <r>     6.7555    -0.0000    33.0000 </r>
       <r>     6.8380    -0.0000    33.0000 </r>
       <r>     6.9205    -0.0000    33.0000 </r>
       <r>     7.0030    -0.0000    33.0000 </r>
       <r>     7.0855    -0.0000    33.0000 </r>
       <r>     7.1680     0.0000    33.0000 </r>
       <r>     7.2505     0.0000    33.0000 </r>
       <r>     7.3330     0.0000    33.0000 </r>
       <r>     7.4155     0.0000    33.0000 </r>
       <r>     7.4980     0.0000    33.0000 </r>
       <r>     7.5805    -0.0000    33.0000 </r>
       <r>     7.6630    -0.0000    33.0000 </r>
       <r>     7.7455    -0.0000    33.0000 </r>
       <r>     7.8280    -0.0000    33.0000 </r>
       <r>     7.9105    -0.0000    33.0000 </r>
       <r>     7.9930    -0.0000    33.0000 </r>
       <r>     8.0756    -0.0000    33.0000 </r>
       <r>     8.1581    -0.0000    33.0000 </r>
       <r>     8.2406    -0.0000    33.0000 </r>
       <r>     8.3231    -0.0000    33.0000 </r>
       <r>     8.4056    -0.0000    33.0000 </r>
       <r>     8.4881    -0.0000    33.0000 </r>
       <r>     8.5706    -0.0003    33.0000 </r>
       <r>     8.6531    -0.0032    32.9997 </r>
       <r>     8.7356    -0.0252    32.9976 </r>
       <r>     8.8181    -0.1317    32.9868 </r>
       <r>     8.9006    -0.4226    32.9519 </r>
       <r>     8.9831    -0.6358    32.8994 </r>
       <r>     9.0656     0.6031    32.9492 </r>
       <r>     9.1481     4.9082    33.3541 </r>
       <r>     9.2306    10.5412    34.2238 </r>
       <r>     9.3131    12.2141    35.2315 </r>
       <r>     9.3956     8.0477    35.8955 </r>
       <r>     9.4781     2.4915    36.1011 </r>
       <r>     9.5606    -0.3247    36.0743 </r>
       <r>     9.6431    -0.7648    36.0112 </r>
       <r>     9.7256    -0.7419    35.9500 </r>
       <r>     9.8081    -0.6552    35.8959 </r>
       <r>     9.8906     1.0378    35.9815 </r>
       <r>     9.9731     5.7681    36.4574 </r>
       <r>    10.0556    11.0530    37.3693 </r>
       <r>    10.1381    11.6788    38.3329 </r>
       <r>    10.2206     7.2921    38.9345 </r>
       <r>    10.3031     3.3741    39.2129 </r>
       <r>    10.3856     2.8286    39.4462 </r>
       <r>    10.4681     3.0270    39.6960 </r>
       <r>    10.5507     1.9765    39.8590 </r>
       <r>    10.6332     2.1250    40.0344 </r>
       <r>    10.7157     6.1423    40.5411 </r>
       <r>    10.7982    11.2416    41.4686 </r>
       <r>    10.8807    11.6060    42.4261 </r>
       <r>    10.9632     6.6790    42.9772 </r>
       <r>    11.0457     1.5666    43.1064 </r>
       <r>    11.1282    -0.5076    43.0645 </r>
       <r>    11.2107    -0.5327    43.0206 </r>
       <r>    11.2932    -0.2008    43.0040 </r>
       <r>    11.3757    -0.0596    42.9991 </r>
       <r>    11.4582    -0.0986    42.9910 </r>
       <r>    11.5407    -0.3377    42.9631 </r>
       <r>    11.6232    -0.6435    42.9100 </r>
       <r>    11.7057     0.0648    42.9153 </r>
       <r>    11.7882     3.6087    43.2131 </r>
       <r>    11.8707     9.3511    43.9846 </r>
       <r>    11.9532    12.3995    45.0076 </r>
       <r>    12.0357     9.3943    45.7826 </r>
       <r>    12.1182     3.6503    46.0838 </r>
       <r>    12.2007     0.0800    46.0904 </r>
       <r>    12.2832    -0.6442    46.0373 </r>
       <r>    12.3657    -0.3399    46.0092 </r>
       <r>    12.4482    -0.0936    46.0015 </r>
       <r>    12.5307    -0.0162    46.0002 </r>
       <r>    12.6132    -0.0019    46.0000 </r>
       <r>    12.6957    -0.0001    46.0000 </r>
       <r>    12.7782    -0.0000    46.0000 </r>
       <r>    12.8607    -0.0000    46.0000 </r>
       <r>    12.9432    -0.0000    46.0000 </r>
       <r>    13.0258    -0.0000    46.0000 </r>
       <r>    13.1083    -0.0002    46.0000 </r>
       <r>    13.1908    -0.0023    45.9998 </r>
       <r>    13.2733    -0.0191    45.9982 </r>
       <r>    13.3558    -0.1067    45.9894 </r>
       <r>    13.4383    -0.3703    45.9589 </r>
       <r>    13.5208    -0.6480    45.9054 </r>
       <r>    13.6033     0.2563    45.9265 </r>
       <r>    13.6858     4.1086    46.2655 </r>
       <r>    13.7683     9.8471    47.0779 </r>
       <r>    13.8508    12.3717    48.0986 </r>
       <r>    13.9333     8.8749    48.8309 </r>
       <r>    14.0158     3.1709    49.0925 </r>
       <r>    14.0983    -0.0973    49.0844 </r>
       <r>    14.1808    -0.6851    49.0279 </r>
       <r>    14.2633    -0.4652    48.9895 </r>
       <r>    14.3458    -0.2803    48.9664 </r>
       <r>    14.4283     0.3167    48.9925 </r>
       <r>    14.5108     1.8947    49.1489 </r>
       <r>    14.5933     3.7032    49.4544 </r>
       <r>    14.6758     3.9815    49.7829 </r>
       <r>    14.7583     2.4168    49.9823 </r>
       <r>    14.8408     0.6414    50.0352 </r>
       <r>    14.9233    -0.1447    50.0232 </r>
       <r>    15.0058    -0.1881    50.0077 </r>
       <r>    15.0883    -0.0807    50.0011 </r>
       <r>    15.1708    -0.0613    49.9960 </r>
       <r>    15.2533    -0.2037    49.9792 </r>
       <r>    15.3358    -0.5357    49.9350 </r>
       <r>    15.4183    -0.5012    49.8936 </r>
       <r>    15.5009     1.6019    50.0258 </r>
       <r>    15.5834     6.7520    50.5829 </r>
       <r>    15.6659    11.7158    51.5495 </r>
       <r>    15.7484    11.3755    52.4880 </r>
       <r>    15.8309     6.0119    52.9840 </r>
       <r>    15.9134     0.8650    53.0553 </r>
       <r>    15.9959    -0.7771    52.9912 </r>
       <r>    16.0784     1.0790    53.0803 </r>
       <r>    16.1609     5.0777    53.4992 </r>
       <r>    16.2434     8.0742    54.1653 </r>
       <r>    16.3259     7.1060    54.7516 </r>
       <r>    16.4084     3.3787    55.0304 </r>
       <r>    16.4909     0.4525    55.0677 </r>
       <r>    16.5734    -0.4202    55.0330 </r>
       <r>    16.6559    -0.2886    55.0092 </r>
       <r>    16.7384    -0.0914    55.0017 </r>
       <r>    16.8209    -0.0177    55.0002 </r>
       <r>    16.9034    -0.0022    55.0000 </r>
       <r>    16.9859    -0.0002    55.0000 </r>
       <r>    17.0684    -0.0000    55.0000 </r>
       <r>    17.1509    -0.0000    55.0000 </r>
       <r>    17.2334    -0.0001    55.0000 </r>
       <r>    17.3159    -0.0016    54.9999 </r>
       <r>    17.3984    -0.0159    54.9985 </r>
       <r>    17.4809    -0.1026    54.9901 </r>
       <r>    17.5634    -0.4249    54.9550 </r>
       <r>    17.6459    -0.9917    54.8732 </r>
       <r>    17.7284    -0.5331    54.8292 </r>
       <r>    17.8109     3.9829    55.1578 </r>
       <r>    17.8934    13.1788    56.2451 </r>
       <r>    17.9760    20.2910    57.9192 </r>
       <r>    18.0585    17.7477    59.3834 </r>
       <r>    18.1410     8.4087    60.0772 </r>
       <r>    18.2235     1.1125    60.1690 </r>
       <r>    18.3060    -1.0519    60.0822 </r>
       <r>    18.3885    -0.7191    60.0229 </r>
       <r>    18.4710    -0.2272    60.0041 </r>
       <r>    18.5535    -0.0439    60.0005 </r>
       <r>    18.6360    -0.0056    60.0000 </r>
       <r>    18.7185    -0.0005    60.0000 </r>
       <r>    18.8010    -0.0000    60.0000 </r>
       <r>    18.8835    -0.0000    60.0000 </r>
       <r>    18.9660    -0.0000    60.0000 </r>
       <r>    19.0485    -0.0000    60.0000 </r>
       <r>    19.1310    -0.0000    60.0000 </r>
       <r>    19.2135    -0.0000    60.0000 </r>
       <r>    19.2960     0.0000    60.0000 </r>
       <r>    19.3785     0.0000    60.0000 </r>
       <r>    19.4610     0.0000    60.0000 </r>
       <r>    19.5435     0.0000    60.0000 </r>
       <r>    19.6260     0.0000    60.0000 </r>
       <r>    19.7085     0.0000    60.0000 </r>
       <r>    19.7910     0.0000    60.0000 </r>
       <r>    19.8735     0.0000    60.0000 </r>
       <r>    19.9560     0.0000    60.0000 </r>
      </set>
     </set>
    </array>
   </total>
  </dos>
 </calculation>
 <structure name="finalpos" >
  <crystal>
   <varray name="basis" >
    <v>       5.98999977       0.00000000       0.00000000 </v>
    <v>       0.00000000       5.98999977       0.00000000 </v>
    <v>       0.00000000       0.00000000       5.98999977 </v>
   </varray>
   <i name="volume">    214.92177436 </i>
   <varray name="rec_basis" >
    <v>       0.16694491       0.00000000       0.00000000 </v>
    <v>       0.00000000       0.16694491       0.00000000 </v>
    <v>       0.00000000       0.00000000       0.16694491 </v>
   </varray>
  </crystal>
  <varray name="positions" >
   <v>       0.00000000       0.00000000       0.00000000 </v>
   <v>       0.00000000       0.50000000       0.50000000 </v>
   <v>       0.50000000       0.00000000       0.50000000 </v>
   <v>       0.50000000       0.50000000       0.00000000 </v>
   <v>       0.25000000       0.25000000       0.25000000 </v>
   <v>       0.75000000       0.75000000       0.75000000 </v>
   <v>       0.75000000       0.75000000       0.25000000 </v>
   <v>       0.25000000       0.25000000       0.75000000 </v>
   <v>       0.75000000       0.25000000       0.75000000 </v>
   <v>       0.25000000       0.75000000       0.25000000 </v>
   <v>       0.25000000       0.75000000       0.75000000 </v>
   <v>       0.75000000       0.25000000       0.25000000 </v>
  </varray>
 </structure>
</modeling>
